 vasp.5.4.4.18Apr17-6-g9f103f2a35 (build Apr 18 2019 12:40:38) complex          
  
 executed on             LinuxIFC date 2022.01.22  09:20:56
 running on    8 total cores
 distrk:  each k-point on    8 cores,    1 groups
 distr:  one band on NCORES_PER_BAND=   1 cores,    8 groups


--------------------------------------------------------------------------------------------------------


 INCAR:
 POTCAR:    PAW_PBE Al 04Jan2001                  
 POTCAR:    PAW_PBE O 08Apr2002                   
 POTCAR:    PAW_PBE H 15Jun2001                   

 ----------------------------------------------------------------------------- 
|                                                                             |
|           W    W    AA    RRRRR   N    N  II  N    N   GGGG   !!!           |
|           W    W   A  A   R    R  NN   N  II  NN   N  G    G  !!!           |
|           W    W  A    A  R    R  N N  N  II  N N  N  G       !!!           |
|           W WW W  AAAAAA  RRRRR   N  N N  II  N  N N  G  GGG   !            |
|           WW  WW  A    A  R   R   N   NN  II  N   NN  G    G                |
|           W    W  A    A  R    R  N    N  II  N    N   GGGG   !!!           |
|                                                                             |
|      For optimal performance we recommend to set                            |
|        NCORE= 4 - approx SQRT( number of cores)                             |
|      NCORE specifies how many cores store one orbital (NPAR=cpu/NCORE).     |
|      This setting can  greatly improve the performance of VASP for DFT.     |
|      The default,   NCORE=1            might be grossly inefficient         |
|      on modern multi-core architectures or massively parallel machines.     |
|      Do your own testing !!!!                                               |
|      Unfortunately you need to use the default for GW and RPA calculations. |
|      (for HF NCORE is supported but not extensively tested yet)             |
|                                                                             |
 ----------------------------------------------------------------------------- 

 POTCAR:    PAW_PBE Al 04Jan2001                  
   VRHFIN =Al: s2p1                                                             
   LEXCH  = PE                                                                  
   EATOM  =    53.5387 eV,    3.9350 Ry                                         
                                                                                
   TITEL  = PAW_PBE Al 04Jan2001                                                
   LULTRA =        F    use ultrasoft PP ?                                      
   IUNSCR =        1    unscreen: 0-lin 1-nonlin 2-no                           
   RPACOR =    1.500    partial core radius                                     
   POMASS =   26.981; ZVAL   =    3.000    mass and valenz                      
   RCORE  =    1.900    outmost cutoff radius                                   
   RWIGS  =    2.650; RWIGS  =    1.402    wigner-seitz radius (au A)           
   ENMAX  =  240.300; ENMIN  =  180.225 eV                                      
   ICORE  =        2    local potential                                         
   LCOR   =        T    correct aug charges                                     
   LPAW   =        T    paw PP                                                  
   EAUG   =  291.052                                                            
   DEXC   =    0.000                                                            
   RMAX   =    1.939    core radius for proj-oper                               
   RAUG   =    1.300    factor for augmentation sphere                          
   RDEP   =    1.966    radius for radial grids                                 
   RDEPT  =    1.856    core radius for aug-charge                              
                                                                                
   Atomic configuration                                                         
    6 entries                                                                   
     n  l   j            E        occ.                                          
     1  0  0.50     -1511.1048   2.0000                                         
     2  0  0.50      -108.1629   2.0000                                         
     2  1  1.50       -69.6402   6.0000                                         
     3  0  0.50        -7.7528   2.0000                                         
     3  1  1.50        -2.7121   1.0000                                         
     3  2  2.50        -2.7212   0.0000                                         
   Description                                                                  
     l       E           TYP  RCUT    TYP  RCUT                                 
     0     -7.7528455     23  1.900                                             
     0     -3.3096929     23  1.900                                             
     1     -2.7120682     23  1.900                                             
     1     13.6058260     23  1.900                                             
     2     -2.7211652      7  1.900                                             
  local pseudopotential read in
  partial core-charges read in
  partial kinetic energy density read in
  atomic valenz-charges read in
  non local Contribution for L=           0  read in
    real space projection operators read in
  non local Contribution for L=           0  read in
    real space projection operators read in
  non local Contribution for L=           1  read in
    real space projection operators read in
  non local Contribution for L=           1  read in
    real space projection operators read in
    PAW grid and wavefunctions read in
 
   number of l-projection  operators is LMAX  =           4
   number of lm-projection operators is LMMAX =           8
 
 POTCAR:    PAW_PBE O 08Apr2002                   
   VRHFIN =O: s2p4                                                              
   LEXCH  = PE                                                                  
   EATOM  =   432.3788 eV,   31.7789 Ry                                         
                                                                                
   TITEL  = PAW_PBE O 08Apr2002                                                 
   LULTRA =        F    use ultrasoft PP ?                                      
   IUNSCR =        1    unscreen: 0-lin 1-nonlin 2-no                           
   RPACOR =    1.200    partial core radius                                     
   POMASS =   16.000; ZVAL   =    6.000    mass and valenz                      
   RCORE  =    1.520    outmost cutoff radius                                   
   RWIGS  =    1.550; RWIGS  =    0.820    wigner-seitz radius (au A)           
   ENMAX  =  400.000; ENMIN  =  300.000 eV                                      
   ICORE  =        2    local potential                                         
   LCOR   =        T    correct aug charges                                     
   LPAW   =        T    paw PP                                                  
   EAUG   =  605.392                                                            
   DEXC   =    0.000                                                            
   RMAX   =    1.553    core radius for proj-oper                               
   RAUG   =    1.300    factor for augmentation sphere                          
   RDEP   =    1.550    radius for radial grids                                 
   RDEPT  =    1.329    core radius for aug-charge                              
                                                                                
   Atomic configuration                                                         
    4 entries                                                                   
     n  l   j            E        occ.                                          
     1  0  0.50      -514.6923   2.0000                                         
     2  0  0.50       -23.9615   2.0000                                         
     2  1  0.50        -9.0305   4.0000                                         
     3  2  1.50        -9.5241   0.0000                                         
   Description                                                                  
     l       E           TYP  RCUT    TYP  RCUT                                 
     0    -23.9615318     23  1.200                                             
     0     -9.5240782     23  1.200                                             
     1     -9.0304911     23  1.520                                             
     1      8.1634956     23  1.520                                             
     2     -9.5240782      7  1.500                                             
  local pseudopotential read in
  partial core-charges read in
  partial kinetic energy density read in
  kinetic energy density of atom read in
  atomic valenz-charges read in
  non local Contribution for L=           0  read in
    real space projection operators read in
  non local Contribution for L=           0  read in
    real space projection operators read in
  non local Contribution for L=           1  read in
    real space projection operators read in
  non local Contribution for L=           1  read in
    real space projection operators read in
    PAW grid and wavefunctions read in
 
   number of l-projection  operators is LMAX  =           4
   number of lm-projection operators is LMMAX =           8
 
 POTCAR:    PAW_PBE H 15Jun2001                   
   VRHFIN =H: ultrasoft test                                                    
   LEXCH  = PE                                                                  
   EATOM  =    12.4884 eV,    0.9179 Ry                                         
                                                                                
   TITEL  = PAW_PBE H 15Jun2001                                                 
   LULTRA =        F    use ultrasoft PP ?                                      
   IUNSCR =        0    unscreen: 0-lin 1-nonlin 2-no                           
   RPACOR =    0.000    partial core radius                                     
   POMASS =    1.000; ZVAL   =    1.000    mass and valenz                      
   RCORE  =    1.100    outmost cutoff radius                                   
   RWIGS  =    0.700; RWIGS  =    0.370    wigner-seitz radius (au A)           
   ENMAX  =  250.000; ENMIN  =  200.000 eV                                      
   RCLOC  =    0.701    cutoff for local pot                                    
   LCOR   =        T    correct aug charges                                     
   LPAW   =        T    paw PP                                                  
   EAUG   =  400.000                                                            
   RMAX   =    1.123    core radius for proj-oper                               
   RAUG   =    1.200    factor for augmentation sphere                          
   RDEP   =    1.112    radius for radial grids                                 
   RDEPT  =    0.926    core radius for aug-charge                              
                                                                                
   Atomic configuration                                                         
    2 entries                                                                   
     n  l   j            E        occ.                                          
     1  0  0.50        -6.4927   1.0000                                         
     2  1  0.50        -3.4015   0.0000                                         
   Description                                                                  
     l       E           TYP  RCUT    TYP  RCUT                                 
     0     -6.4927494     23  1.100                                             
     0      6.8029130     23  1.100                                             
     1     -4.0817478     23  1.100                                             
  local pseudopotential read in
  atomic valenz-charges read in
  non local Contribution for L=           0  read in
    real space projection operators read in
  non local Contribution for L=           0  read in
    real space projection operators read in
  non local Contribution for L=           1  read in
    real space projection operators read in
    PAW grid and wavefunctions read in
 
   number of l-projection  operators is LMAX  =           3
   number of lm-projection operators is LMMAX =           5
 

 ----------------------------------------------------------------------------- 
|                                                                             |
|  ADVICE TO THIS USER RUNNING 'VASP/VAMP'   (HEAR YOUR MASTER'S VOICE ...):  |
|                                                                             |
|      You have a (more or less) 'large supercell' and for larger cells       |
|      it might be more efficient to use real space projection opertators     |
|      So try LREAL= Auto  in the INCAR   file.                               |
|      Mind:          For very  accurate calculation you might also keep the  |
|      reciprocal projection scheme          (i.e. LREAL=.FALSE.)             |
|                                                                             |
 ----------------------------------------------------------------------------- 

  PAW_PBE Al 04Jan2001                  :
 energy of atom  1       EATOM=  -53.5387
 kinetic energy error for atom=    0.0003 (will be added to EATOM!!)
  PAW_PBE O 08Apr2002                   :
 energy of atom  2       EATOM= -432.3788
 kinetic energy error for atom=    0.0224 (will be added to EATOM!!)
  PAW_PBE H 15Jun2001                   :
 energy of atom  3       EATOM=  -12.4884
 kinetic energy error for atom=    0.0020 (will be added to EATOM!!)
 
 
 POSCAR: Al4 O6                                  
  positions in direct lattice
  No initial velocities read in
 exchange correlation table for  LEXCH =        8
   RHO(1)=    0.500       N(1)  =     2000
   RHO(2)=  100.500       N(2)  =     4000

 VTST: version 3.2, (02/03/18)

 CHAIN: initializing optimizer
 
 OPT: Using VASP QUASI-newton optimizer
 CHAIN: Read ICHAIN            0
 
 POSCAR: Al4 O6                                  
  positions in direct lattice
  No initial velocities read in
 


--------------------------------------------------------------------------------------------------------


 ion  position               nearest neighbor table
   1  0.927  0.928  0.921-  62 1.85  52 1.88  78 1.93  39 1.93  68 2.01  47 2.07  24 2.68  32 2.77
                             3 2.83  14 2.85  22 3.18  23 3.29  20 3.30
   2  0.917  0.932  0.432-  61 1.82  40 1.85  51 1.87  77 1.98  48 2.02  67 2.06  23 2.64   6 2.73
                            31 2.82   4 2.83  24 3.21  13 3.28  19 3.32
   3  0.081  0.574  0.065-  76 1.74  47 1.90  52 1.94  33 1.97  65 1.98  63 2.06  11 2.65  26 2.74
                             1 2.83  29 2.95  12 3.15   9 3.30
   4  0.072  0.577  0.572-  81 1.78  75 1.86  48 1.87  66 1.92  34 1.92  64 1.96  51 2.04  12 2.73
                            25 2.82   2 2.83  30 2.84  11 3.26  10 3.26  16 3.28
   5  0.682  0.176  0.173-  45 1.82  77 1.88  54 1.90  69 1.91  57 1.98  39 2.01  14 2.67  22 2.82
                            17 2.84  23 2.87   7 3.22  31 3.25   6 3.32
   6  0.577  0.082  0.578-  53 1.86  77 1.86  40 1.89  42 1.91  58 1.92  72 1.96  21 2.68   2 2.73
                            28 2.77  25 2.81  10 3.25  16 3.30   5 3.32
   7  0.570  0.572  0.071-  43 1.83  69 1.85  37 1.91  80 1.92  59 2.00  56 2.07  15 2.68  28 2.80
                            25 2.81  30 2.82  11 3.21   5 3.22  16 3.31
   8  0.577  0.562  0.571-  79 1.80  70 1.89  38 1.92  44 1.98  60 2.02  55 2.06  16 2.72  29 2.84
                            26 2.89  27 2.90  21 3.12  15 3.22  12 3.31  13 3.36
   9  0.175  0.170  0.182-  73 1.79  65 1.87  41 1.90  50 1.94  61 1.99  35 2.11  31 2.64  19 2.70
                            13 2.82  18 2.88  32 3.25  14 3.25   3 3.30
  10  0.181  0.175  0.680-  74 1.80  42 1.82  66 1.84  62 1.97  36 2.00  49 2.02  32 2.68  22 2.76
                            20 2.81  17 2.87   6 3.25  31 3.25   4 3.26
  11  0.177  0.672  0.174-  75 1.85  67 1.87  43 1.91  63 1.94  33 2.01  52 2.03   3 2.65  23 2.69
                            17 2.75  20 2.87   7 3.21  31 3.23   4 3.26
  12  0.168  0.687  0.679-  68 1.80  44 1.89  76 1.90  51 2.05  64 2.06  34 2.08   4 2.73  24 2.77
                            18 2.81  19 2.87   3 3.15  32 3.19   8 3.31
  13  0.825  0.331  0.326-  79 1.90  65 1.91  53 1.94  61 1.96  37 2.00  46 2.07  29 2.70  15 2.80
                             9 2.82  21 2.87   2 3.28  30 3.29  25 3.29   8 3.36
  14  0.571  0.077  0.077-  71 1.85  41 1.87  54 1.91  39 1.94  57 1.95  78 1.96   5 2.67  26 2.73
                            27 2.79   1 2.85  21 3.19   9 3.25  15 3.29
  15  0.667  0.678  0.176-  71 1.88  79 1.89  47 1.91  37 1.93  56 1.94  59 1.94   7 2.68  19 2.77
                            13 2.80  24 2.81   8 3.22  14 3.29
  16  0.672  0.685  0.665-  72 1.82  48 1.86  55 1.86  80 1.87  81 1.92  38 2.02  60 2.10   8 2.72
                            20 2.73  23 2.78  22 2.97   4 3.28   6 3.30   7 3.31
  17  0.329  0.331  0.321-  33 1.84  57 1.87  49 1.92  69 1.92  75 1.95  42 2.04  25 2.60  11 2.75
                             5 2.84  10 2.87  26 3.21  29 3.22  27 3.30
  18  0.316  0.336  0.823-  34 1.86  70 1.90  50 1.91  58 1.95  76 1.97  41 1.98  26 2.61  12 2.81
                             9 2.88  21 2.93  30 3.22  25 3.28
  19  0.323  0.834  0.320-  35 1.87  51 1.88  44 1.92  59 1.95  73 2.02  71 2.03  27 2.67   9 2.70
                            15 2.77  12 2.87  25 3.30  28 3.31   2 3.32
  20  0.331  0.824  0.816-  36 1.85  60 1.85  52 1.92  72 1.94  43 1.96  74 1.97  28 2.61  16 2.73
                            10 2.81  11 2.87  27 3.18   1 3.30  26 3.31
  21  0.683  0.176  0.685-  78 1.75  70 1.81  46 1.86  53 2.05  40 2.06  58 2.11   6 2.68  24 2.81
                            13 2.87  18 2.93   8 3.12  14 3.19  32 3.22
  22  0.835  0.315  0.820-  62 1.84  45 1.93  38 1.95  66 1.95  54 2.01  80 2.04  30 2.68  10 2.76
                             5 2.82  16 2.97  29 3.14   1 3.18  26 3.36
  23  0.842  0.818  0.320-  63 1.84  67 1.91  48 1.91  39 1.93  55 1.95  77 2.11   2 2.64  11 2.69
                            16 2.78   5 2.87  29 3.24   1 3.29  27 3.35
  24  0.821  0.822  0.827-  56 1.82  40 1.85  64 1.89  68 1.94  47 1.95  78 2.02   1 2.68  12 2.77
                            15 2.81  21 2.81   2 3.21  30 3.23  28 3.24
  25  0.424  0.430  0.423-  59 1.83  34 1.92  53 1.94  69 1.94  42 1.98  75 2.01  17 2.60   7 2.81
                             6 2.81   4 2.82  18 3.28  13 3.29  19 3.30
  26  0.422  0.418  0.933-  33 1.85  54 1.90  60 1.90  41 1.97  76 1.99  70 2.04  18 2.61  14 2.73
                             3 2.74   8 2.89  17 3.21  20 3.31  22 3.36
  27  0.430  0.926  0.426-  36 1.88  55 1.92  57 1.93  71 1.97  44 2.00  73 2.05  19 2.67  14 2.79
                            32 2.82   8 2.90  20 3.18  17 3.30  23 3.35
  28  0.427  0.923  0.919-  35 1.84  58 1.88  56 1.89  72 1.94  43 1.99  74 1.99  20 2.61   6 2.77
                            31 2.80   7 2.80  24 3.24  19 3.31
  29  0.934  0.421  0.435-  49 1.82  38 1.83  63 1.86  46 1.98  65 2.02  79 2.15  13 2.70  32 2.76
                             8 2.84   3 2.95  22 3.14  17 3.22  23 3.24
  30  0.924  0.427  0.926-  64 1.83  37 1.90  50 1.92  66 1.99  45 2.02  80 2.07  22 2.68   7 2.82
                             4 2.84  31 2.91  18 3.22  24 3.23  13 3.29
  31  0.080  0.065  0.080-  67 1.84  35 1.91  74 1.92  45 1.97  61 1.99  50 2.01   9 2.64  28 2.80
                             2 2.82  30 2.91  11 3.23   5 3.25  10 3.25
  32  0.078  0.075  0.577-  46 1.82  73 1.86  68 1.90  49 1.94  36 1.94  62 1.95  10 2.68  29 2.76
                             1 2.77  27 2.82  12 3.19  21 3.22   9 3.25
  33  0.276  0.463  0.130-  17 1.84  26 1.85   3 1.97  11 2.01
  34  0.266  0.474  0.628-  18 1.86   4 1.92  25 1.92  12 2.08
  35  0.284  0.959  0.118-  28 1.84  19 1.87  31 1.91   9 2.11
  36  0.279  0.975  0.624-  20 1.85  27 1.88  32 1.94  10 2.00
  37  0.763  0.484  0.121-  30 1.90   7 1.91  15 1.93  13 2.00
  38  0.770  0.472  0.623-  29 1.83   8 1.92  22 1.95  16 2.02
  39  0.771  0.969  0.129-   1 1.93  23 1.93  14 1.94   5 2.01
  40  0.770  0.970  0.633-   2 1.85  24 1.85   6 1.89  21 2.06
  41  0.376  0.215  0.025-  14 1.87   9 1.90  26 1.97  18 1.98
  42  0.372  0.226  0.536-  10 1.82   6 1.91  25 1.98  17 2.04
  43  0.380  0.716  0.019-   7 1.83  11 1.91  20 1.96  28 1.99
  44  0.370  0.730  0.520-  12 1.89  19 1.92   8 1.98  27 2.00
  45  0.875  0.220  0.023-   5 1.82  22 1.93  31 1.97  30 2.02
  46  0.882  0.218  0.537-  32 1.82  21 1.86  29 1.98  13 2.07
  47  0.874  0.715  0.026-   3 1.90  15 1.91  24 1.95   1 2.07
  48  0.874  0.722  0.526-  81 1.30  16 1.86   4 1.87  23 1.91   2 2.02
  49  0.131  0.273  0.473-  29 1.82  17 1.92  32 1.94  10 2.02
  50  0.122  0.275  0.984-  18 1.91  30 1.92   9 1.94  31 2.01
  51  0.123  0.788  0.465-   2 1.87  19 1.88   4 2.04  12 2.05
  52  0.128  0.776  0.965-   1 1.88  20 1.92   3 1.94  11 2.03
  53  0.624  0.274  0.481-   6 1.86  25 1.94  13 1.94  21 2.05
  54  0.620  0.272  0.987-  26 1.90   5 1.90  14 1.91  22 2.01
  55  0.635  0.770  0.470-  16 1.86  27 1.92  23 1.95   8 2.06
  56  0.625  0.783  0.972-  24 1.82  28 1.89  15 1.94   7 2.07
  57  0.475  0.133  0.272-  17 1.87  27 1.93  14 1.95   5 1.98
  58  0.467  0.126  0.781-  28 1.88   6 1.92  18 1.95  21 2.11
  59  0.470  0.625  0.275-  25 1.83  15 1.94  19 1.95   7 2.00
  60  0.459  0.624  0.776-  20 1.85  26 1.90   8 2.02  16 2.10
  61  0.971  0.120  0.284-   2 1.82  13 1.96   9 1.99  31 1.99
  62  0.984  0.117  0.780-  22 1.84   1 1.85  32 1.95  10 1.97
  63  0.979  0.619  0.280-  23 1.84  29 1.86  11 1.94   3 2.06
  64  0.966  0.622  0.777-  30 1.83  24 1.89   4 1.96  12 2.06
  65  0.028  0.367  0.231-   9 1.87  13 1.91   3 1.98  29 2.02
  66  0.031  0.371  0.723-  10 1.84   4 1.92  22 1.95  30 1.99
  67  0.036  0.869  0.225-  31 1.84  11 1.87  23 1.91   2 2.06
  68  0.016  0.882  0.715-  12 1.80  32 1.90  24 1.94   1 2.01
  69  0.528  0.376  0.226-   7 1.85   5 1.91  17 1.92  25 1.94
  70  0.521  0.368  0.724-  21 1.81   8 1.89  18 1.90  26 2.04
  71  0.535  0.877  0.222-  14 1.85  15 1.88  27 1.97  19 2.03
  72  0.529  0.873  0.718-  16 1.82  20 1.94  28 1.94   6 1.96
  73  0.218  0.041  0.373-   9 1.79  32 1.86  19 2.02  27 2.05
  74  0.220  0.024  0.873-  10 1.80  31 1.92  20 1.97  28 1.99
  75  0.216  0.532  0.375-  11 1.85   4 1.86  17 1.95  25 2.01
  76  0.217  0.534  0.879-   3 1.74  12 1.90  18 1.97  26 1.99
  77  0.714  0.034  0.381-   6 1.86   5 1.88   2 1.98  23 2.11
  78  0.730  0.032  0.868-  21 1.75   1 1.93  14 1.96  24 2.02
  79  0.717  0.528  0.375-   8 1.80  15 1.89  13 1.90  29 2.15
  80  0.718  0.534  0.863-  16 1.87   7 1.92  22 2.04  30 2.07
  81  0.909  0.563  0.573-  48 1.30   4 1.78  16 1.92
 
  LATTYP: Found a trigonal (rhomboedric) cell.
 ALAT       =    10.3559103012
 COS(alpha) =     0.5694285754
  
  Lattice vectors:
  
 A1 = (  10.3559103012,   0.0000000000,   0.0000000000)
 A2 = (   5.8969512495,   8.5129809190,   0.0000000000)
 A3 = (   5.8969512495,   3.0887258413,   7.9328819987)


Analysis of symmetry for initial positions (statically):
=====================================================================
 Subroutine PRICEL returns:
 Original cell was already a primitive cell.
 

 Routine SETGRP: Setting up the symmetry group for a 
 trigonal (rhombohedral) supercell.


 Subroutine GETGRP returns: Found  1 space group operations
 (whereof  1 operations were pure point group operations)
 out of a pool of 12 trial point group operations.


The static configuration has the point symmetry C_1 .


Analysis of symmetry for dynamics (positions and initial velocities):
=====================================================================
 Subroutine PRICEL returns:
 Original cell was already a primitive cell.
 

 Routine SETGRP: Setting up the symmetry group for a 
 trigonal (rhombohedral) supercell.


 Subroutine GETGRP returns: Found  1 space group operations
 (whereof  1 operations were pure point group operations)
 out of a pool of 12 trial point group operations.


The dynamic configuration has the point symmetry C_1 .


Analysis of structural, dynamic, and magnetic symmetry:
=====================================================================
 Subroutine PRICEL returns:
 Original cell was already a primitive cell.
 

 Routine SETGRP: Setting up the symmetry group for a 
 trigonal (rhombohedral) supercell.


 Subroutine GETGRP returns: Found  1 space group operations
 (whereof  1 operations were pure point group operations)
 out of a pool of 12 trial point group operations.


The magnetic configuration has the point symmetry C_1 .


 Subroutine INISYM returns: Found  1 space group operations
 (whereof  1 operations are pure point group operations),
 and found     1 'primitive' translations

 
 
 KPOINTS: Al2O3                                   

Automatic generation of k-mesh.
Space group operators:
 irot       det(A)        alpha          n_x          n_y          n_z        tau_x        tau_y        tau_z
    1     1.000000     0.000000     1.000000     0.000000     0.000000     0.000000     0.000000     0.000000
 
 Subroutine IBZKPT returns following result:
 ===========================================
 
 Found      1 irreducible k-points:
 
 Following reciprocal coordinates:
            Coordinates               Weight
  0.000000  0.000000  0.000000      1.000000
 
 Following cartesian coordinates:
            Coordinates               Weight
  0.000000  0.000000  0.000000      1.000000
 


--------------------------------------------------------------------------------------------------------




 Dimension of arrays:
   k-points           NKPTS =      1   k-points in BZ     NKDIM =      1   number of bands    NBANDS=    240
   number of dos      NEDOS =    301   number of ions     NIONS =     81
   non local maximal  LDIM  =      4   non local SUM 2l+1 LMDIM =      8
   total plane-waves  NPLWV = 216000
   max r-space proj   IRMAX =      1   max aug-charges    IRDMAX=  12219
   dimension x,y,z NGX =    60 NGY =   60 NGZ =   60
   dimension x,y,z NGXF=   120 NGYF=  120 NGZF=  120
   support grid    NGXF=   120 NGYF=  120 NGZF=  120
   ions per type =              32  48   1
   NGX,Y,Z   is equivalent  to a cutoff of   9.63,  9.63,  9.63 a.u.
   NGXF,Y,Z  is equivalent  to a cutoff of  19.26, 19.26, 19.26 a.u.

 SYSTEM =  Al2O3                                   
 POSCAR =  Al4 O6                                  

 Startparameter for this run:
   NWRITE =      2    write-flag & timer
   PREC   = normal    normal or accurate (medium, high low for compatibility)
   ISTART =      0    job   : 0-new  1-cont  2-samecut
   ICHARG =      2    charge: 1-file 2-atom 10-const
   ISPIN  =      2    spin polarized calculation?
   LNONCOLLINEAR =      F non collinear calculations
   LSORBIT =      F    spin-orbit coupling
   INIWAV =      1    electr: 0-lowe 1-rand  2-diag
   LASPH  =      F    aspherical Exc in radial PAW
   METAGGA=      F    non-selfconsistent MetaGGA calc.

 Electronic Relaxation 1
   ENCUT  =  500.0 eV  36.75 Ry    6.06 a.u.  18.88 18.88 18.88*2*pi/ulx,y,z
   ENINI  =  500.0     initial cutoff
   ENAUG  =  605.4 eV  augmentation charge cutoff
   NELM   =     60;   NELMIN=  2; NELMDL= -5     # of ELM steps 
   EDIFF  = 0.1E-03   stopping-criterion for ELM
   LREAL  =      F    real-space projection
   NLSPLINE    = F    spline interpolate recip. space projectors
   LCOMPAT=      F    compatible to vasp.4.4
   GGA_COMPAT  = T    GGA compatible to vasp.4.4-vasp.4.6
   LMAXPAW     = -100 max onsite density
   LMAXMIX     =    2 max onsite mixed and CHGCAR
   VOSKOWN=      0    Vosko Wilk Nusair interpolation
   ROPT   =    0.00000   0.00000   0.00000
 Ionic relaxation
   EDIFFG = -.5E-01   stopping-criterion for IOM
   NSW    =   1000    number of steps for IOM
   NBLOCK =      1;   KBLOCK =   1000    inner block; outer block 
   IBRION =      1    ionic relax: 0-MD 1-quasi-New 2-CG
   NFREE  =      0    steps in history (QN), initial steepest desc. (CG)
   ISIF   =      2    stress and relaxation
   IWAVPR =     11    prediction:  0-non 1-charg 2-wave 3-comb
   ISYM   =      2    0-nonsym 1-usesym 2-fastsym
   LCORR  =      T    Harris-Foulkes like correction to forces

   POTIM  = 0.5000    time-step for ionic-motion
   TEIN   =    0.0    initial temperature
   TEBEG  =    0.0;   TEEND  =   0.0 temperature during run
   SMASS  =  -3.00    Nose mass-parameter (am)
   estimated Nose-frequenzy (Omega)   =  0.10E-29 period in steps =****** mass=  -0.245E-26a.u.
   SCALEE = 1.0000    scale energy and forces
   NPACO  =    256;   APACO  = 16.0  distance and # of slots for P.C.
   PSTRESS=    0.0 pullay stress

  Mass of Ions in am
   POMASS =  26.98 16.00  1.00
  Ionic Valenz
   ZVAL   =   3.00  6.00  1.00
  Atomic Wigner-Seitz radii
   RWIGS  =   1.40  0.82  0.37
  virtual crystal weights 
   VCA    =   1.00  1.00  1.00
   NELECT =     385.0000    total number of electrons
   NUPDOWN=      -1.0000    fix difference up-down

 DOS related values:
   EMIN   =  10.00;   EMAX   =-10.00  energy-range for DOS
   EFERMI =   0.00
   ISMEAR =     0;   SIGMA  =   0.05  broadening in eV -4-tet -1-fermi 0-gaus

 Electronic relaxation 2 (details)
   IALGO  =     38    algorithm
   LDIAG  =      T    sub-space diagonalisation (order eigenvalues)
   LSUBROT=      F    optimize rotation matrix (better conditioning)
   TURBO    =      0    0=normal 1=particle mesh
   IRESTART =      0    0=no restart 2=restart with 2 vectors
   NREBOOT  =      0    no. of reboots
   NMIN     =      0    reboot dimension
   EREF     =   0.00    reference energy to select bands
   IMIX   =      4    mixing-type and parameters
     AMIX     =   0.40;   BMIX     =  1.00
     AMIX_MAG =   1.60;   BMIX_MAG =  1.00
     AMIN     =   0.10
     WC   =   100.;   INIMIX=   1;  MIXPRE=   1;  MAXMIX= -45

 Intra band minimization:
   WEIMIN = 0.0010     energy-eigenvalue tresh-hold
   EBREAK =  0.10E-06  absolut break condition
   DEPER  =   0.30     relativ break condition  

   TIME   =   0.40     timestep for ELM

  volume/ion in A,a.u.               =       8.63        58.27
  Fermi-wavevector in a.u.,A,eV,Ry     =   1.341719  2.535480 24.493326  1.800209
  Thomas-Fermi vector in A             =   2.469930
 
 Write flags
   LWAVE        =      F    write WAVECAR
   LDOWNSAMPLE  =      F    k-point downsampling of WAVECAR
   LCHARG       =      F    write CHGCAR
   LVTOT        =      F    write LOCPOT, total local potential
   LVHAR        =      F    write LOCPOT, Hartree potential only
   LELF         =      F    write electronic localiz. function (ELF)
   LORBIT       =      0    0 simple, 1 ext, 2 COOP (PROOUT), +10 PAW based schemes


 Dipole corrections
   LMONO  =      F    monopole corrections only (constant potential shift)
   LDIPOL =      F    correct potential (dipole corrections)
   IDIPOL =      0    1-x, 2-y, 3-z, 4-all directions 
   EPSILON=  1.0000000 bulk dielectric constant

 Exchange correlation treatment:
   GGA     =    PE    GGA type
   LEXCH   =     8    internal setting for exchange type
   VOSKOWN=      0    Vosko Wilk Nusair interpolation
   LHFCALC =     F    Hartree Fock is set to
   LHFONE  =     F    Hartree Fock one center treatment
   AEXX    =    0.0000 exact exchange contribution

 Linear response parameters
   LEPSILON=     F    determine dielectric tensor
   LRPA    =     F    only Hartree local field effects (RPA)
   LNABLA  =     F    use nabla operator in PAW spheres
   LVEL    =     F    velocity operator in full k-point grid
   LINTERFAST=   F  fast interpolation
   KINTER  =     0    interpolate to denser k-point grid
   CSHIFT  =0.1000    complex shift for real part using Kramers Kronig
   OMEGAMAX=  -1.0    maximum frequency
   DEG_THRESHOLD= 0.2000000E-02 threshold for treating states as degnerate
   RTIME   =   -0.100 relaxation time in fs
  (WPLASMAI=    0.000 imaginary part of plasma frequency in eV, 0.658/RTIME)
   DFIELD  = 0.0000000 0.0000000 0.0000000 field for delta impulse in time
 
 Orbital magnetization related:
   ORBITALMAG=     F  switch on orbital magnetization
   LCHIMAG   =     F  perturbation theory with respect to B field
   DQ        =  0.001000  dq finite difference perturbation B field
   LLRAUG    =     F  two centre corrections for induced B field



--------------------------------------------------------------------------------------------------------


 quasi-Newton-method for relaxation of ions
 charge density and potential will be updated during run
 spin polarized calculation
 Variant of blocked Davidson
 Davidson routine will perform the subspace rotation
 perform sub-space diagonalisation
    after iterative eigenvector-optimisation
 modified Broyden-mixing scheme, WC =      100.0
 initial mixing is a Kerker type mixing with AMIX =  0.4000 and BMIX =      1.0000
 Hartree-type preconditioning will be used
 using additional bands           47
 reciprocal scheme for non local part
 use partial core corrections
 calculate Harris-corrections to forces 
   (improved forces if not selfconsistent)
 use gradient corrections 
 use of overlap-Matrix (Vanderbilt PP)
 Gauss-broadening in eV      SIGMA  =   0.05


--------------------------------------------------------------------------------------------------------


  energy-cutoff  :      500.00
  volume of cell :      699.36
      direct lattice vectors                 reciprocal lattice vectors
    10.355910301  0.000000000  0.000000000     0.096563216 -0.066889446 -0.045736898
     5.896951249  8.512980919  0.000000000     0.000000000  0.117467666 -0.045736898
     5.896951249  3.088725841  7.932881999     0.000000000  0.000000000  0.126057592

  length of vectors
    10.355910301 10.355910301 10.355910301     0.126057592  0.126057592  0.126057592


 
 k-points in units of 2pi/SCALE and weight: Al2O3                                   
   0.00000000  0.00000000  0.00000000       1.000
 
 k-points in reciprocal lattice and weights: Al2O3                                   
   0.00000000  0.00000000  0.00000000       1.000
 
 position of ions in fractional coordinates (direct lattice) 
   0.92692803  0.92792998  0.92085823
   0.91663827  0.93182988  0.43242289
   0.08075569  0.57433348  0.06486859
   0.07245748  0.57728802  0.57161856
   0.68239922  0.17588981  0.17321360
   0.57677345  0.08224157  0.57772468
   0.57037344  0.57234771  0.07111107
   0.57738936  0.56244538  0.57119263
   0.17488232  0.16990195  0.18210298
   0.18114459  0.17537675  0.68007802
   0.17658587  0.67246186  0.17430473
   0.16765184  0.68675982  0.67890121
   0.82493373  0.33097205  0.32582958
   0.57147736  0.07748716  0.07711808
   0.66666029  0.67767570  0.17635671
   0.67189133  0.68494231  0.66470208
   0.32860085  0.33068946  0.32108545
   0.31623798  0.33598838  0.82346842
   0.32311993  0.83379363  0.32025323
   0.33105571  0.82356297  0.81573601
   0.68279493  0.17588295  0.68471333
   0.83504563  0.31533262  0.82035180
   0.84166934  0.81804045  0.32020776
   0.82102879  0.82214609  0.82664971
   0.42426799  0.43040040  0.42287995
   0.42241151  0.41791901  0.93316016
   0.43035013  0.92645545  0.42557452
   0.42715956  0.92252160  0.91883393
   0.93435535  0.42102197  0.43461220
   0.92396455  0.42686989  0.92598077
   0.07975071  0.06475750  0.08018240
   0.07800656  0.07499460  0.57674955
   0.27638305  0.46268248  0.12985403
   0.26603729  0.47362806  0.62804395
   0.28436409  0.95907395  0.11818930
   0.27857143  0.97487534  0.62413153
   0.76326994  0.48425264  0.12085258
   0.77024419  0.47220228  0.62324503
   0.77101087  0.96933371  0.12866010
   0.76951989  0.96956540  0.63310269
   0.37609228  0.21540279  0.02510990
   0.37162438  0.22600173  0.53580802
   0.38044070  0.71608790  0.01908561
   0.36954038  0.72963601  0.52031737
   0.87546594  0.21957978  0.02295762
   0.88179308  0.21840144  0.53728495
   0.87438671  0.71546991  0.02637922
   0.87399664  0.72210824  0.52562691
   0.13093190  0.27269850  0.47316402
   0.12240240  0.27453217  0.98388530
   0.12267913  0.78840202  0.46510622
   0.12751408  0.77589371  0.96472128
   0.62428429  0.27351291  0.48057170
   0.61950146  0.27237026  0.98749126
   0.63451309  0.76971477  0.47022000
   0.62481406  0.78262225  0.97160806
   0.47455842  0.13335656  0.27227271
   0.46667787  0.12582864  0.78098503
   0.46981439  0.62462430  0.27514021
   0.45937461  0.62436959  0.77580054
   0.97067870  0.11982905  0.28373865
   0.98433858  0.11731625  0.78046071
   0.97869848  0.61913541  0.28009619
   0.96588852  0.62227904  0.77742206
   0.02816954  0.36682461  0.23144783
   0.03087633  0.37109431  0.72331358
   0.03564586  0.86897560  0.22473574
   0.01647043  0.88182992  0.71458031
   0.52768949  0.37578081  0.22555210
   0.52149541  0.36782042  0.72413912
   0.53517345  0.87694662  0.22233380
   0.52908434  0.87339940  0.71847676
   0.21835863  0.04081048  0.37295645
   0.21995678  0.02375881  0.87288335
   0.21622522  0.53158155  0.37460071
   0.21694393  0.53413314  0.87917471
   0.71407208  0.03402957  0.38081967
   0.73013790  0.03249656  0.86808068
   0.71739133  0.52783038  0.37508895
   0.71753388  0.53373536  0.86255278
   0.90866286  0.56261662  0.57337507
 
 position of ions in cartesian coordinates  (Angst):
  20.50139752 10.74372885  7.30505968
  17.53755581  9.26828579  3.43035979
   4.60564217  5.08965126  0.51459489
   7.52540925  6.68001490  4.53458255
   9.12551085  2.03235588  1.37408306
   9.86480285  2.48455406  4.58302169
   9.70118123  5.09202771  0.56411571
  12.66440048  6.55234424  4.53120370
   3.88682153  2.00883827  1.44460144
   6.92049227  3.59355351  5.39497872
   6.82204877  6.26303449  1.38273888
   9.78942389  7.94331292  5.38564316
  12.41606698  3.82395704  2.58476763
   6.82986778  0.89784330  0.61176860
  11.94006168  6.31375787  1.39901701
  14.91683351  7.88398326  5.27300313
   7.24644579  3.80689797  2.54713300
  10.11219235  5.40373087  6.53247779
  10.15155910  8.08724373  2.54053112
  13.09524940  9.53056074  6.47113748
  12.14585731  3.61217992  5.43175004
  15.34473326  5.21826237  6.50775399
  15.42844641  7.95299671  2.54017037
  18.22536892  9.55220827  6.55771458
   9.42543387  4.97015060  3.35465672
  12.34170369  6.44001242  7.40264944
  12.42952220  9.20138062  3.37603244
  15.28200996 10.69143493  7.28900117
  14.72173320  4.92654989  3.44772727
  17.54618833  6.49403596  7.34569614
   1.68059468  0.79894078  0.63607749
   4.65113245  2.41984884  4.57528610
   6.35635701  4.33989062  1.03011669
   9.25156439  5.97184221  4.98219853
   9.29741787  8.52963260  0.93758174
  12.31412633 10.22686636  4.95116181
  11.47263102  4.49571397  0.95870922
  14.43637914  5.94488200  4.94412930
  14.45933535  8.64931511  1.02064535
  17.41993453 10.20937236  5.02232890
   5.31306952  1.91127743  0.19919386
   8.34086371  3.57891252  4.25050181
   8.27509216  6.15499285  0.15140392
  11.19784110  7.81849510  4.12761630
  10.49647794  1.94018828  0.18212006
  13.58801588  3.51877322  4.26221812
  13.42971844  6.17225984  0.20926322
  16.40886420  7.77081112  4.16973623
   5.75423395  3.78295103  3.75355431
   8.68841472  5.37603904  7.80504595
   8.66233107  8.14823698  3.68963279
  11.58484608  9.58492789  7.65302009
  10.91183231  3.81276445  3.81231858
  13.84484359  5.36877263  7.83365165
  13.88279549  8.00494779  3.73019977
  16.81512899  9.66347918  7.70765212
   7.30646044  1.97623759  2.15990731
  10.18031016  3.48342546  6.19546209
  10.17122312  6.16724741  2.18265484
  13.01397727  7.71148155  6.15433414
  12.43208058  1.89649328  2.25086523
  15.48786903  3.40934018  6.19130269
  15.43803862  6.13582829  2.22196999
  18.25662399  7.69869317  6.16719744
   3.81970464  3.83764985  1.83604835
   6.77342246  5.39323611  5.73796128
   6.81870775  8.09171975  1.78280212
   9.58451956  9.71414394  5.66868129
   9.01073592  3.89568346  1.78927823
  11.83979185  5.36791545  5.74451019
  12.02461130  8.15215798  1.76374781
  14.86636607  9.65441014  5.69959137
   4.70126580  1.49937904  2.95861951
   7.56530773  2.89835564  6.92448061
   7.58292160  5.68238251  2.97166324
  10.58085935  7.26259488  6.97438925
   9.84121217  1.46594064  3.02099753
  12.87190273  2.95790582  6.88638164
  12.75371152  5.65195686  2.97553636
  15.66455966  7.20786805  6.84252945
  16.10891866  6.56054292  4.54851681
 


--------------------------------------------------------------------------------------------------------


 k-point  1 :   0.0000 0.0000 0.0000  plane waves:   17833

 maximum and minimum number of plane-waves per node :     17833    17833

 maximum number of plane-waves:     17833
 maximum index in each direction: 
   IXMAX=   18   IYMAX=   18   IZMAX=   18
   IXMIN=  -18   IYMIN=  -18   IZMIN=  -18


 serial   3D FFT for wavefunctions
 parallel 3D FFT for charge:
    minimum data exchange during FFTs selected (reduces bandwidth)


 total amount of memory used by VASP MPI-rank0   119711. kBytes
=======================================================================

   base      :      30000. kBytes
   nonl-proj :      26545. kBytes
   fftplans  :       8259. kBytes
   grid      :      36662. kBytes
   one-center:        497. kBytes
   wavefun   :      17748. kBytes
 
     INWAV:  cpu time    0.0000: real time    0.0000
 Broyden mixing: mesh for mixing (old mesh)
   NGX = 37   NGY = 37   NGZ = 37
  (NGX  =120   NGY  =120   NGZ  =120)
  gives a total of  50653 points

 initial charge density was supplied:
 charge density of overlapping atoms calculated
 number of electron     385.0000000 magnetization       1.0000000
 keeping initial charge density in first step


--------------------------------------------------------------------------------------------------------


 Maximum index for augmentation-charges         1519 (set IRDMAX)


--------------------------------------------------------------------------------------------------------


 First call to EWALD:  gamma=   0.200
 Maximum number of real-space cells 3x 3x 3
 Maximum number of reciprocal cells 3x 3x 3

    FEWALD:  cpu time    0.0040: real time    0.0047


--------------------------------------- Iteration      1(   1)  ---------------------------------------


    POTLOK:  cpu time    0.3020: real time    0.3040
    SETDIJ:  cpu time    0.0430: real time    0.0425
     EDDAV:  cpu time    8.9116: real time    8.9135
       DOS:  cpu time    0.0000: real time    0.0005
    --------------------------------------------
      LOOP:  cpu time    9.2566: real time    9.2605

 eigenvalue-minimisations  :   960
 total energy-change (2. order) : 0.2114999E+04  (-0.2009732E+05)
 number of electron     385.0000000 magnetization       1.0000000
 augmentation part      385.0000000 magnetization       1.0000000

 Free energy of the ion-electron system (eV)
  ---------------------------------------------------
  alpha Z        PSCENC =       593.57698122
  Ewald energy   TEWEN  =    -18997.07268665
  -Hartree energ DENC   =     -5151.87371695
  -exchange      EXHF   =         0.00000000
  -V(xc)+E(xc)   XCENC  =       532.55137818
  PAW double counting   =     18754.57418007   -17818.37357977
  entropy T*S    EENTRO =        -0.00404270
  eigenvalues    EBANDS =      1722.79630709
  atomic energy  EATOM  =     22478.82442253
  Solvation  Ediel_sol  =         0.00000000
  ---------------------------------------------------
  free energy    TOTEN  =      2114.99924302 eV

  energy without entropy =     2115.00328572  energy(sigma->0) =     2115.00126437


--------------------------------------------------------------------------------------------------------




--------------------------------------- Iteration      1(   2)  ---------------------------------------


     EDDAV:  cpu time   10.2624: real time   10.2656
       DOS:  cpu time    0.0000: real time    0.0002
    --------------------------------------------
      LOOP:  cpu time   10.2624: real time   10.2658

 eigenvalue-minimisations  :  1144
 total energy-change (2. order) :-0.2622124E+04  (-0.2558527E+04)
 number of electron     385.0000000 magnetization       1.0000000
 augmentation part      385.0000000 magnetization       1.0000000

 Free energy of the ion-electron system (eV)
  ---------------------------------------------------
  alpha Z        PSCENC =       593.57698122
  Ewald energy   TEWEN  =    -18997.07268665
  -Hartree energ DENC   =     -5151.87371695
  -exchange      EXHF   =         0.00000000
  -V(xc)+E(xc)   XCENC  =       532.55137818
  PAW double counting   =     18754.57418007   -17818.37357977
  entropy T*S    EENTRO =        -0.00000000
  eigenvalues    EBANDS =      -899.33150045
  atomic energy  EATOM  =     22478.82442253
  Solvation  Ediel_sol  =         0.00000000
  ---------------------------------------------------
  free energy    TOTEN  =      -507.12452183 eV

  energy without entropy =     -507.12452183  energy(sigma->0) =     -507.12452183


--------------------------------------------------------------------------------------------------------




--------------------------------------- Iteration      1(   3)  ---------------------------------------


     EDDAV:  cpu time   10.1855: real time   10.1887
       DOS:  cpu time    0.0010: real time    0.0002
    --------------------------------------------
      LOOP:  cpu time   10.1865: real time   10.1889

 eigenvalue-minimisations  :  1136
 total energy-change (2. order) :-0.1486523E+03  (-0.1479503E+03)
 number of electron     385.0000000 magnetization       1.0000000
 augmentation part      385.0000000 magnetization       1.0000000

 Free energy of the ion-electron system (eV)
  ---------------------------------------------------
  alpha Z        PSCENC =       593.57698122
  Ewald energy   TEWEN  =    -18997.07268665
  -Hartree energ DENC   =     -5151.87371695
  -exchange      EXHF   =         0.00000000
  -V(xc)+E(xc)   XCENC  =       532.55137818
  PAW double counting   =     18754.57418007   -17818.37357977
  entropy T*S    EENTRO =        -0.00000000
  eigenvalues    EBANDS =     -1047.98376307
  atomic energy  EATOM  =     22478.82442253
  Solvation  Ediel_sol  =         0.00000000
  ---------------------------------------------------
  free energy    TOTEN  =      -655.77678444 eV

  energy without entropy =     -655.77678444  energy(sigma->0) =     -655.77678444


--------------------------------------------------------------------------------------------------------




--------------------------------------- Iteration      1(   4)  ---------------------------------------


     EDDAV:  cpu time   10.1285: real time   10.1321
       DOS:  cpu time    0.0000: real time    0.0002
    --------------------------------------------
      LOOP:  cpu time   10.1285: real time   10.1323

 eigenvalue-minimisations  :  1128
 total energy-change (2. order) :-0.1843377E+01  (-0.1837550E+01)
 number of electron     385.0000000 magnetization       1.0000000
 augmentation part      385.0000000 magnetization       1.0000000

 Free energy of the ion-electron system (eV)
  ---------------------------------------------------
  alpha Z        PSCENC =       593.57698122
  Ewald energy   TEWEN  =    -18997.07268665
  -Hartree energ DENC   =     -5151.87371695
  -exchange      EXHF   =         0.00000000
  -V(xc)+E(xc)   XCENC  =       532.55137818
  PAW double counting   =     18754.57418007   -17818.37357977
  entropy T*S    EENTRO =        -0.00000000
  eigenvalues    EBANDS =     -1049.82714006
  atomic energy  EATOM  =     22478.82442253
  Solvation  Ediel_sol  =         0.00000000
  ---------------------------------------------------
  free energy    TOTEN  =      -657.62016144 eV

  energy without entropy =     -657.62016144  energy(sigma->0) =     -657.62016144


--------------------------------------------------------------------------------------------------------




--------------------------------------- Iteration      1(   5)  ---------------------------------------


     EDDAV:  cpu time    9.9555: real time    9.9581
       DOS:  cpu time    0.0000: real time    0.0002
    CHARGE:  cpu time    0.2170: real time    0.2163
    MIXING:  cpu time    0.0060: real time    0.0067
    --------------------------------------------
      LOOP:  cpu time   10.1785: real time   10.1813

 eigenvalue-minimisations  :  1104
 total energy-change (2. order) :-0.3374299E-01  (-0.3371224E-01)
 number of electron     384.9999981 magnetization       1.0000000
 augmentation part       37.6272038 magnetization       0.0279982

 Broyden mixing:
  rms(total) = 0.49683E+01    rms(broyden)= 0.49670E+01
  rms(prec ) = 0.69109E+01
  weight for this iteration     100.00

 Free energy of the ion-electron system (eV)
  ---------------------------------------------------
  alpha Z        PSCENC =       593.57698122
  Ewald energy   TEWEN  =    -18997.07268665
  -Hartree energ DENC   =     -5151.87371695
  -exchange      EXHF   =         0.00000000
  -V(xc)+E(xc)   XCENC  =       532.55137818
  PAW double counting   =     18754.57418007   -17818.37357977
  entropy T*S    EENTRO =        -0.00000000
  eigenvalues    EBANDS =     -1049.86088305
  atomic energy  EATOM  =     22478.82442253
  Solvation  Ediel_sol  =         0.00000000
  ---------------------------------------------------
  free energy    TOTEN  =      -657.65390442 eV

  energy without entropy =     -657.65390442  energy(sigma->0) =     -657.65390442


--------------------------------------------------------------------------------------------------------




--------------------------------------- Iteration      1(   6)  ---------------------------------------


    POTLOK:  cpu time    0.2840: real time    0.2839
    SETDIJ:  cpu time    0.0470: real time    0.0467
     EDDAV:  cpu time    9.4106: real time    9.4135
       DOS:  cpu time    0.0010: real time    0.0002
    CHARGE:  cpu time    0.2130: real time    0.2132
    MIXING:  cpu time    0.0060: real time    0.0063
    --------------------------------------------
      LOOP:  cpu time    9.9615: real time    9.9637

 eigenvalue-minimisations  :  1080
 total energy-change (2. order) : 0.6504613E+02  (-0.2890254E+02)
 number of electron     384.9999983 magnetization       1.0000000
 augmentation part       31.6376183 magnetization       0.0475582

 Broyden mixing:
  rms(total) = 0.16978E+01    rms(broyden)= 0.16962E+01
  rms(prec ) = 0.19339E+01
  weight for this iteration     100.00

 eigenvalues of (default mixing * dielectric matrix)
  average eigenvalue GAMMA=   0.9445
  0.9445

 Free energy of the ion-electron system (eV)
  ---------------------------------------------------
  alpha Z        PSCENC =       593.57698122
  Ewald energy   TEWEN  =    -18997.07268665
  -Hartree energ DENC   =     -5916.22723460
  -exchange      EXHF   =         0.00000000
  -V(xc)+E(xc)   XCENC  =       586.26982515
  PAW double counting   =     23994.94561605   -23074.39537636
  entropy T*S    EENTRO =        -0.00000000
  eigenvalues    EBANDS =      -258.52932627
  atomic energy  EATOM  =     22478.82442253
  Solvation  Ediel_sol  =         0.00000000
  ---------------------------------------------------
  free energy    TOTEN  =      -592.60777892 eV

  energy without entropy =     -592.60777892  energy(sigma->0) =     -592.60777892


--------------------------------------------------------------------------------------------------------




--------------------------------------- Iteration      1(   7)  ---------------------------------------


    POTLOK:  cpu time    0.2790: real time    0.2800
    SETDIJ:  cpu time    0.0480: real time    0.0481
     EDDAV:  cpu time    9.6035: real time    9.6057
       DOS:  cpu time    0.0000: real time    0.0002
    CHARGE:  cpu time    0.2040: real time    0.2040
    MIXING:  cpu time    0.0070: real time    0.0073
    --------------------------------------------
      LOOP:  cpu time   10.1415: real time   10.1453

 eigenvalue-minimisations  :  1096
 total energy-change (2. order) :-0.3022639E+00  (-0.6093908E+00)
 number of electron     384.9999984 magnetization       1.0000000
 augmentation part       31.3494425 magnetization       0.0398953

 Broyden mixing:
  rms(total) = 0.93314E+00    rms(broyden)= 0.93306E+00
  rms(prec ) = 0.10857E+01
  weight for this iteration     100.00

 eigenvalues of (default mixing * dielectric matrix)
  average eigenvalue GAMMA=   1.2911
  1.1795  1.4027

 Free energy of the ion-electron system (eV)
  ---------------------------------------------------
  alpha Z        PSCENC =       593.57698122
  Ewald energy   TEWEN  =    -18997.07268665
  -Hartree energ DENC   =     -5973.32055631
  -exchange      EXHF   =         0.00000000
  -V(xc)+E(xc)   XCENC  =       591.23583630
  PAW double counting   =     27919.26414604   -26998.13868890
  entropy T*S    EENTRO =        -0.00000000
  eigenvalues    EBANDS =      -207.27949703
  atomic energy  EATOM  =     22478.82442253
  Solvation  Ediel_sol  =         0.00000000
  ---------------------------------------------------
  free energy    TOTEN  =      -592.91004281 eV

  energy without entropy =     -592.91004281  energy(sigma->0) =     -592.91004281


--------------------------------------------------------------------------------------------------------




--------------------------------------- Iteration      1(   8)  ---------------------------------------


    POTLOK:  cpu time    0.2750: real time    0.2747
    SETDIJ:  cpu time    0.0480: real time    0.0478
     EDDAV:  cpu time   10.2104: real time   10.2132
       DOS:  cpu time    0.0000: real time    0.0002
    CHARGE:  cpu time    0.2190: real time    0.2199
    MIXING:  cpu time    0.0080: real time    0.0068
    --------------------------------------------
      LOOP:  cpu time   10.7604: real time   10.7626

 eigenvalue-minimisations  :  1104
 total energy-change (2. order) :-0.7687078E-01  (-0.5397447E-01)
 number of electron     384.9999984 magnetization       1.0000000
 augmentation part       31.4343572 magnetization       0.0347002

 Broyden mixing:
  rms(total) = 0.27822E+00    rms(broyden)= 0.27822E+00
  rms(prec ) = 0.33962E+00
  weight for this iteration     100.00

 eigenvalues of (default mixing * dielectric matrix)
  average eigenvalue GAMMA=   1.4213
  2.2374  1.0132  1.0132

 Free energy of the ion-electron system (eV)
  ---------------------------------------------------
  alpha Z        PSCENC =       593.57698122
  Ewald energy   TEWEN  =    -18997.07268665
  -Hartree energ DENC   =     -5996.10489044
  -exchange      EXHF   =         0.00000000
  -V(xc)+E(xc)   XCENC  =       594.26415278
  PAW double counting   =     31136.35982814   -30214.73351097
  entropy T*S    EENTRO =        -0.00000000
  eigenvalues    EBANDS =      -188.10121019
  atomic energy  EATOM  =     22478.82442253
  Solvation  Ediel_sol  =         0.00000000
  ---------------------------------------------------
  free energy    TOTEN  =      -592.98691359 eV

  energy without entropy =     -592.98691359  energy(sigma->0) =     -592.98691359


--------------------------------------------------------------------------------------------------------




--------------------------------------- Iteration      1(   9)  ---------------------------------------


    POTLOK:  cpu time    0.2580: real time    0.2591
    SETDIJ:  cpu time    0.0450: real time    0.0442
     EDDAV:  cpu time   10.0735: real time   10.0766
       DOS:  cpu time    0.0000: real time    0.0002
    CHARGE:  cpu time    0.2190: real time    0.2190
    MIXING:  cpu time    0.0070: real time    0.0068
    --------------------------------------------
      LOOP:  cpu time   10.6024: real time   10.6059

 eigenvalue-minimisations  :  1128
 total energy-change (2. order) :-0.6039049E-01  (-0.1477461E-01)
 number of electron     384.9999984 magnetization       1.0000000
 augmentation part       31.3753343 magnetization       0.0363615

 Broyden mixing:
  rms(total) = 0.95143E-01    rms(broyden)= 0.95140E-01
  rms(prec ) = 0.99612E-01
  weight for this iteration     100.00

 eigenvalues of (default mixing * dielectric matrix)
  average eigenvalue GAMMA=   1.3666
  2.5366  1.1289  1.1289  0.6718

 Free energy of the ion-electron system (eV)
  ---------------------------------------------------
  alpha Z        PSCENC =       593.57698122
  Ewald energy   TEWEN  =    -18997.07268665
  -Hartree energ DENC   =     -6022.75368736
  -exchange      EXHF   =         0.00000000
  -V(xc)+E(xc)   XCENC  =       596.90916947
  PAW double counting   =     32336.72994612   -31415.22143352
  entropy T*S    EENTRO =        -0.00000000
  eigenvalues    EBANDS =      -164.04001588
  atomic energy  EATOM  =     22478.82442253
  Solvation  Ediel_sol  =         0.00000000
  ---------------------------------------------------
  free energy    TOTEN  =      -593.04730408 eV

  energy without entropy =     -593.04730408  energy(sigma->0) =     -593.04730408


--------------------------------------------------------------------------------------------------------




--------------------------------------- Iteration      1(  10)  ---------------------------------------


    POTLOK:  cpu time    0.2770: real time    0.2773
    SETDIJ:  cpu time    0.0470: real time    0.0468
     EDDAV:  cpu time    9.9445: real time    9.9479
       DOS:  cpu time    0.0000: real time    0.0003
    CHARGE:  cpu time    0.2170: real time    0.2166
    MIXING:  cpu time    0.0090: real time    0.0091
    --------------------------------------------
      LOOP:  cpu time   10.4944: real time   10.4979

 eigenvalue-minimisations  :  1096
 total energy-change (2. order) :-0.8144547E-02  (-0.1542647E-02)
 number of electron     384.9999984 magnetization       1.0000000
 augmentation part       31.3588272 magnetization       0.0373109

 Broyden mixing:
  rms(total) = 0.57329E-01    rms(broyden)= 0.57326E-01
  rms(prec ) = 0.60002E-01
  weight for this iteration     100.00

 eigenvalues of (default mixing * dielectric matrix)
  average eigenvalue GAMMA=   1.3601
  2.5849  1.6986  1.0044  0.8603  0.6524

 Free energy of the ion-electron system (eV)
  ---------------------------------------------------
  alpha Z        PSCENC =       593.57698122
  Ewald energy   TEWEN  =    -18997.07268665
  -Hartree energ DENC   =     -6025.86964937
  -exchange      EXHF   =         0.00000000
  -V(xc)+E(xc)   XCENC  =       597.20715526
  PAW double counting   =     32236.81657155   -31315.34755474
  entropy T*S    EENTRO =        -0.00000000
  eigenvalues    EBANDS =      -161.19068843
  atomic energy  EATOM  =     22478.82442253
  Solvation  Ediel_sol  =         0.00000000
  ---------------------------------------------------
  free energy    TOTEN  =      -593.05544863 eV

  energy without entropy =     -593.05544863  energy(sigma->0) =     -593.05544863


--------------------------------------------------------------------------------------------------------




--------------------------------------- Iteration      1(  11)  ---------------------------------------


    POTLOK:  cpu time    0.2810: real time    0.2815
    SETDIJ:  cpu time    0.0470: real time    0.0465
     EDDAV:  cpu time   10.0515: real time   10.0545
       DOS:  cpu time    0.0000: real time    0.0002
    CHARGE:  cpu time    0.2220: real time    0.2212
    MIXING:  cpu time    0.0090: real time    0.0090
    --------------------------------------------
      LOOP:  cpu time   10.6104: real time   10.6130

 eigenvalue-minimisations  :  1112
 total energy-change (2. order) :-0.1961988E-02  (-0.2306684E-03)
 number of electron     384.9999984 magnetization       1.0000000
 augmentation part       31.3637207 magnetization       0.0377540

 Broyden mixing:
  rms(total) = 0.27383E-01    rms(broyden)= 0.27382E-01
  rms(prec ) = 0.28938E-01
  weight for this iteration     100.00

 eigenvalues of (default mixing * dielectric matrix)
  average eigenvalue GAMMA=   1.3790
  2.6359  2.2096  0.9613  0.9136  0.9136  0.6403

 Free energy of the ion-electron system (eV)
  ---------------------------------------------------
  alpha Z        PSCENC =       593.57698122
  Ewald energy   TEWEN  =    -18997.07268665
  -Hartree energ DENC   =     -6026.15988037
  -exchange      EXHF   =         0.00000000
  -V(xc)+E(xc)   XCENC  =       597.25705027
  PAW double counting   =     32040.44357069   -31118.98005568
  entropy T*S    EENTRO =        -0.00000000
  eigenvalues    EBANDS =      -160.94681262
  atomic energy  EATOM  =     22478.82442253
  Solvation  Ediel_sol  =         0.00000000
  ---------------------------------------------------
  free energy    TOTEN  =      -593.05741061 eV

  energy without entropy =     -593.05741061  energy(sigma->0) =     -593.05741061


--------------------------------------------------------------------------------------------------------




--------------------------------------- Iteration      1(  12)  ---------------------------------------


    POTLOK:  cpu time    0.2790: real time    0.2792
    SETDIJ:  cpu time    0.0460: real time    0.0464
     EDDAV:  cpu time   11.5612: real time   11.5636
       DOS:  cpu time    0.0000: real time    0.0002
    CHARGE:  cpu time    0.1830: real time    0.1830
    MIXING:  cpu time    0.0070: real time    0.0066
    --------------------------------------------
      LOOP:  cpu time   12.0762: real time   12.0791

 eigenvalue-minimisations  :  1112
 total energy-change (2. order) :-0.4823322E-03  (-0.9385197E-04)
 number of electron     384.9999984 magnetization       1.0000000
 augmentation part       31.3683973 magnetization       0.0376881

 Broyden mixing:
  rms(total) = 0.87767E-02    rms(broyden)= 0.87755E-02
  rms(prec ) = 0.94018E-02
  weight for this iteration     100.00

 eigenvalues of (default mixing * dielectric matrix)
  average eigenvalue GAMMA=   1.3635
  2.7264  2.3863  1.0001  1.0001  0.9969  0.8001  0.6343

 Free energy of the ion-electron system (eV)
  ---------------------------------------------------
  alpha Z        PSCENC =       593.57698122
  Ewald energy   TEWEN  =    -18997.07268665
  -Hartree energ DENC   =     -6025.96224792
  -exchange      EXHF   =         0.00000000
  -V(xc)+E(xc)   XCENC  =       597.25220836
  PAW double counting   =     31914.97367369   -30993.51055759
  entropy T*S    EENTRO =        -0.00000000
  eigenvalues    EBANDS =      -161.13968659
  atomic energy  EATOM  =     22478.82442253
  Solvation  Ediel_sol  =         0.00000000
  ---------------------------------------------------
  free energy    TOTEN  =      -593.05789295 eV

  energy without entropy =     -593.05789295  energy(sigma->0) =     -593.05789295


--------------------------------------------------------------------------------------------------------




--------------------------------------- Iteration      1(  13)  ---------------------------------------


    POTLOK:  cpu time    0.2680: real time    0.2696
    SETDIJ:  cpu time    0.0460: real time    0.0446
     EDDAV:  cpu time    8.6497: real time    8.6521
       DOS:  cpu time    0.0010: real time    0.0002
    CHARGE:  cpu time    0.1940: real time    0.1951
    MIXING:  cpu time    0.0080: real time    0.0071
    --------------------------------------------
      LOOP:  cpu time    9.1666: real time    9.1688

 eigenvalue-minimisations  :   744
 total energy-change (2. order) :-0.1094616E-03  (-0.1970987E-04)
 number of electron     384.9999984 magnetization       1.0000000
 augmentation part       31.3692849 magnetization       0.0375764

 Broyden mixing:
  rms(total) = 0.21920E-02    rms(broyden)= 0.21916E-02
  rms(prec ) = 0.26570E-02
  weight for this iteration     100.00

 eigenvalues of (default mixing * dielectric matrix)
  average eigenvalue GAMMA=   1.3386
  2.7989  2.4452  1.0409  1.0409  1.0133  1.0133  0.7285  0.6276

 Free energy of the ion-electron system (eV)
  ---------------------------------------------------
  alpha Z        PSCENC =       593.57698122
  Ewald energy   TEWEN  =    -18997.07268665
  -Hartree energ DENC   =     -6025.93810283
  -exchange      EXHF   =         0.00000000
  -V(xc)+E(xc)   XCENC  =       597.25241713
  PAW double counting   =     31867.15586210   -30945.69333125
  entropy T*S    EENTRO =        -0.00000000
  eigenvalues    EBANDS =      -161.16356465
  atomic energy  EATOM  =     22478.82442253
  Solvation  Ediel_sol  =         0.00000000
  ---------------------------------------------------
  free energy    TOTEN  =      -593.05800241 eV

  energy without entropy =     -593.05800241  energy(sigma->0) =     -593.05800241


--------------------------------------------------------------------------------------------------------




--------------------------------------- Iteration      1(  14)  ---------------------------------------


    POTLOK:  cpu time    0.3669: real time    0.3678
    SETDIJ:  cpu time    0.0680: real time    0.0674
     EDDAV:  cpu time    8.2457: real time    8.2477
       DOS:  cpu time    0.0000: real time    0.0002
    --------------------------------------------
      LOOP:  cpu time    8.6817: real time    8.6830

 eigenvalue-minimisations  :   632
 total energy-change (2. order) :-0.1550382E-04  (-0.4956470E-05)
 number of electron     384.9999984 magnetization       1.0000000
 augmentation part       31.3692849 magnetization       0.0375764

 Free energy of the ion-electron system (eV)
  ---------------------------------------------------
  alpha Z        PSCENC =       593.57698122
  Ewald energy   TEWEN  =    -18997.07268665
  -Hartree energ DENC   =     -6025.89477775
  -exchange      EXHF   =         0.00000000
  -V(xc)+E(xc)   XCENC  =       597.24821021
  PAW double counting   =     31857.34169699   -30935.87751591
  entropy T*S    EENTRO =        -0.00000000
  eigenvalues    EBANDS =      -161.20434855
  atomic energy  EATOM  =     22478.82442253
  Solvation  Ediel_sol  =         0.00000000
  ---------------------------------------------------
  free energy    TOTEN  =      -593.05801791 eV

  energy without entropy =     -593.05801791  energy(sigma->0) =     -593.05801791


--------------------------------------------------------------------------------------------------------




 average (electrostatic) potential at core
  the test charge radii are     1.0406  0.7215  0.5201
  (the norm of the test charge is              1.0000)
       1 -71.9941       2 -71.8889       3 -71.9143       4 -71.9661       5 -71.6542
       6 -71.3941       7 -71.7401       8 -71.9803       9 -71.8227      10 -71.5268
      11 -72.0759      12 -72.2314      13 -72.1145      14 -71.6656      15 -71.6928
      16 -71.8471      17 -71.7209      18 -71.8801      19 -71.9572      20 -71.6787
      21 -71.7836      22 -72.1431      23 -72.1329      24 -71.7103      25 -71.8855
      26 -72.0793      27 -72.0356      28 -71.6139      29 -71.8840      30 -72.0222
      31 -72.0673      32 -71.7412      33 -67.4294      34 -67.2500      35 -67.3224
      36 -67.3479      37 -67.2369      38 -67.5541      39 -67.0457      40 -67.3276
      41 -67.3057      42 -66.9742      43 -67.3771      44 -67.3831      45 -67.4729
      46 -67.3235      47 -67.0754      48 -68.5586      49 -67.0690      50 -67.2947
      51 -67.0585      52 -67.3141      53 -67.0843      54 -67.2699      55 -67.1930
      56 -67.0533      57 -66.9115      58 -66.5776      59 -67.2029      60 -66.9548
      61 -67.3863      62 -67.5468      63 -67.4695      64 -67.3820      65 -67.1448
      66 -67.3079      67 -67.6576      68 -67.6010      69 -67.4340      70 -67.6711
      71 -67.3620      72 -67.3371      73 -67.3602      74 -67.2282      75 -67.4256
      76 -67.8708      77 -67.1442      78 -67.4168      79 -67.3816      80 -66.9535
      81 -29.3950
 
 
 
 E-fermi :  10.7377     XC(G=0): -11.5656     alpha+bet :-16.4104


 spin component 1

 k-point     1 :       0.0000    0.0000    0.0000
  band No.  band energies     occupation 
      1     -13.4718      1.00000
      2     -12.9726      1.00000
      3     -12.3953      1.00000
      4     -12.3369      1.00000
      5     -12.2519      1.00000
      6     -12.2015      1.00000
      7     -12.1366      1.00000
      8     -12.1113      1.00000
      9     -12.0866      1.00000
     10     -12.0640      1.00000
     11     -12.0036      1.00000
     12     -11.9653      1.00000
     13     -11.6579      1.00000
     14     -11.5665      1.00000
     15     -11.5038      1.00000
     16     -11.4212      1.00000
     17     -11.2627      1.00000
     18     -11.2154      1.00000
     19     -11.1829      1.00000
     20     -11.1749      1.00000
     21     -11.0759      1.00000
     22     -11.0315      1.00000
     23     -10.9691      1.00000
     24     -10.9092      1.00000
     25     -10.8849      1.00000
     26     -10.8262      1.00000
     27     -10.8200      1.00000
     28     -10.7697      1.00000
     29     -10.7429      1.00000
     30     -10.7242      1.00000
     31     -10.6912      1.00000
     32     -10.6538      1.00000
     33     -10.6459      1.00000
     34     -10.6294      1.00000
     35     -10.5899      1.00000
     36     -10.5451      1.00000
     37     -10.5214      1.00000
     38     -10.5040      1.00000
     39     -10.4692      1.00000
     40     -10.4576      1.00000
     41     -10.4000      1.00000
     42     -10.3445      1.00000
     43     -10.3098      1.00000
     44     -10.2622      1.00000
     45     -10.2359      1.00000
     46     -10.2064      1.00000
     47     -10.1952      1.00000
     48      -9.9691      1.00000
     49      -1.5675      1.00000
     50      -0.9730      1.00000
     51      -0.6418      1.00000
     52      -0.5645      1.00000
     53      -0.4995      1.00000
     54      -0.4547      1.00000
     55      -0.4169      1.00000
     56      -0.3439      1.00000
     57      -0.2143      1.00000
     58      -0.1839      1.00000
     59      -0.0329      1.00000
     60       0.0452      1.00000
     61       0.1607      1.00000
     62       0.1682      1.00000
     63       0.2409      1.00000
     64       0.3194      1.00000
     65       0.4169      1.00000
     66       0.4568      1.00000
     67       0.4880      1.00000
     68       0.6211      1.00000
     69       0.7197      1.00000
     70       0.7664      1.00000
     71       0.8312      1.00000
     72       0.8402      1.00000
     73       0.9271      1.00000
     74       1.0966      1.00000
     75       1.2087      1.00000
     76       1.2468      1.00000
     77       1.3080      1.00000
     78       1.3365      1.00000
     79       1.3455      1.00000
     80       1.3827      1.00000
     81       1.4582      1.00000
     82       1.5083      1.00000
     83       1.5666      1.00000
     84       1.5886      1.00000
     85       1.6178      1.00000
     86       1.6943      1.00000
     87       1.7071      1.00000
     88       1.7729      1.00000
     89       1.8075      1.00000
     90       1.8596      1.00000
     91       1.9054      1.00000
     92       1.9166      1.00000
     93       2.0114      1.00000
     94       2.0521      1.00000
     95       2.1246      1.00000
     96       2.1651      1.00000
     97       2.1764      1.00000
     98       2.2139      1.00000
     99       2.2785      1.00000
    100       2.2959      1.00000
    101       2.3431      1.00000
    102       2.3812      1.00000
    103       2.4454      1.00000
    104       2.4560      1.00000
    105       2.4924      1.00000
    106       2.5149      1.00000
    107       2.6174      1.00000
    108       2.6356      1.00000
    109       2.6465      1.00000
    110       2.6835      1.00000
    111       2.7065      1.00000
    112       2.7360      1.00000
    113       2.9664      1.00000
    114       3.1440      1.00000
    115       3.2409      1.00000
    116       3.3400      1.00000
    117       3.4416      1.00000
    118       3.4663      1.00000
    119       3.5188      1.00000
    120       3.5621      1.00000
    121       3.6010      1.00000
    122       3.6304      1.00000
    123       3.6773      1.00000
    124       3.6831      1.00000
    125       3.7288      1.00000
    126       3.7506      1.00000
    127       3.7809      1.00000
    128       3.8161      1.00000
    129       3.8844      1.00000
    130       3.9010      1.00000
    131       3.9403      1.00000
    132       4.0372      1.00000
    133       4.0743      1.00000
    134       4.1145      1.00000
    135       4.1492      1.00000
    136       4.2160      1.00000
    137       4.2393      1.00000
    138       4.2566      1.00000
    139       4.2912      1.00000
    140       4.3192      1.00000
    141       4.3399      1.00000
    142       4.3745      1.00000
    143       4.3958      1.00000
    144       4.4161      1.00000
    145       4.4317      1.00000
    146       4.4503      1.00000
    147       4.4748      1.00000
    148       4.4946      1.00000
    149       4.5503      1.00000
    150       4.5629      1.00000
    151       4.5786      1.00000
    152       4.5976      1.00000
    153       4.6164      1.00000
    154       4.6399      1.00000
    155       4.6678      1.00000
    156       4.6746      1.00000
    157       4.6950      1.00000
    158       4.7492      1.00000
    159       4.7578      1.00000
    160       4.8207      1.00000
    161       4.8351      1.00000
    162       4.8950      1.00000
    163       4.8977      1.00000
    164       4.9095      1.00000
    165       4.9937      1.00000
    166       5.0121      1.00000
    167       5.0215      1.00000
    168       5.0653      1.00000
    169       5.0831      1.00000
    170       5.1238      1.00000
    171       5.1514      1.00000
    172       5.1821      1.00000
    173       5.1923      1.00000
    174       5.2698      1.00000
    175       5.3547      1.00000
    176       5.3766      1.00000
    177       5.4322      1.00000
    178       5.4650      1.00000
    179       5.5477      1.00000
    180       5.5667      1.00000
    181       5.5886      1.00000
    182       5.6204      1.00000
    183       5.6438      1.00000
    184       5.6587      1.00000
    185       5.6815      1.00000
    186       5.7258      1.00000
    187       5.7576      1.00000
    188       5.8129      1.00000
    189       5.8305      1.00000
    190       5.9266      1.00000
    191       5.9474      1.00000
    192       6.0495      1.00000
    193      10.4561      1.00000
    194      11.8970      0.00000
    195      13.9889      0.00000
    196      14.0691      0.00000
    197      14.4054      0.00000
    198      14.6428      0.00000
    199      14.6604      0.00000
    200      14.7010      0.00000
    201      14.7379      0.00000
    202      14.8169      0.00000
    203      14.8550      0.00000
    204      14.9363      0.00000
    205      14.9920      0.00000
    206      15.0228      0.00000
    207      15.0380      0.00000
    208      15.0558      0.00000
    209      15.1045      0.00000
    210      15.1932      0.00000
    211      15.2072      0.00000
    212      15.2480      0.00000
    213      15.3035      0.00000
    214      15.3224      0.00000
    215      15.4083      0.00000
    216      15.5261      0.00000
    217      15.5408      0.00000
    218      15.6952      0.00000
    219      15.8679      0.00000
    220      15.9287      0.00000
    221      16.0103      0.00000
    222      16.1503      0.00000
    223      16.3890      0.00000
    224      16.4245      0.00000
    225      16.5196      0.00000
    226      16.5901      0.00000
    227      16.6950      0.00000
    228      16.7280      0.00000
    229      16.7757      0.00000
    230      16.8287      0.00000
    231      16.8624      0.00000
    232      16.9479      0.00000
    233      16.9811      0.00000
    234      17.0417      0.00000
    235      17.0936      0.00000
    236      17.1901      0.00000
    237      17.2449      0.00000
    238      17.2821      0.00000
    239      17.3272      0.00000
    240      17.4150      0.00000

 spin component 2

 k-point     1 :       0.0000    0.0000    0.0000
  band No.  band energies     occupation 
      1     -13.3514      1.00000
      2     -12.8464      1.00000
      3     -12.3889      1.00000
      4     -12.3263      1.00000
      5     -12.2428      1.00000
      6     -12.1832      1.00000
      7     -12.1258      1.00000
      8     -12.1016      1.00000
      9     -12.0816      1.00000
     10     -12.0529      1.00000
     11     -11.9975      1.00000
     12     -11.9568      1.00000
     13     -11.6204      1.00000
     14     -11.5526      1.00000
     15     -11.4910      1.00000
     16     -11.4073      1.00000
     17     -11.2532      1.00000
     18     -11.2070      1.00000
     19     -11.1786      1.00000
     20     -11.1598      1.00000
     21     -11.0680      1.00000
     22     -11.0201      1.00000
     23     -10.9657      1.00000
     24     -10.8976      1.00000
     25     -10.8774      1.00000
     26     -10.8211      1.00000
     27     -10.8144      1.00000
     28     -10.7641      1.00000
     29     -10.7336      1.00000
     30     -10.7139      1.00000
     31     -10.6787      1.00000
     32     -10.6428      1.00000
     33     -10.6386      1.00000
     34     -10.6134      1.00000
     35     -10.5839      1.00000
     36     -10.5412      1.00000
     37     -10.5146      1.00000
     38     -10.4960      1.00000
     39     -10.4651      1.00000
     40     -10.4547      1.00000
     41     -10.3925      1.00000
     42     -10.3421      1.00000
     43     -10.3045      1.00000
     44     -10.2569      1.00000
     45     -10.2303      1.00000
     46     -10.2028      1.00000
     47     -10.1871      1.00000
     48      -9.9668      1.00000
     49      -1.0911      1.00000
     50      -0.9491      1.00000
     51      -0.6156      1.00000
     52      -0.5561      1.00000
     53      -0.4828      1.00000
     54      -0.4454      1.00000
     55      -0.3928      1.00000
     56      -0.3371      1.00000
     57      -0.1937      1.00000
     58      -0.1767      1.00000
     59      -0.0146      1.00000
     60       0.0887      1.00000
     61       0.1752      1.00000
     62       0.1848      1.00000
     63       0.2497      1.00000
     64       0.3399      1.00000
     65       0.4260      1.00000
     66       0.4669      1.00000
     67       0.5077      1.00000
     68       0.6405      1.00000
     69       0.7411      1.00000
     70       0.7775      1.00000
     71       0.8391      1.00000
     72       0.8571      1.00000
     73       0.9626      1.00000
     74       1.1202      1.00000
     75       1.2182      1.00000
     76       1.2635      1.00000
     77       1.3234      1.00000
     78       1.3551      1.00000
     79       1.3583      1.00000
     80       1.4012      1.00000
     81       1.4691      1.00000
     82       1.5223      1.00000
     83       1.5855      1.00000
     84       1.5983      1.00000
     85       1.6247      1.00000
     86       1.7045      1.00000
     87       1.7235      1.00000
     88       1.7890      1.00000
     89       1.8150      1.00000
     90       1.8660      1.00000
     91       1.9184      1.00000
     92       1.9295      1.00000
     93       2.0261      1.00000
     94       2.0628      1.00000
     95       2.1373      1.00000
[...]
   0.137E+02 -.102E+02 -.251E+02   -.142E+02 0.104E+02 0.258E+02   0.446E+00 -.277E+00 -.675E+00   0.237E-01 -.538E-02 -.563E-02
   -.136E+02 0.102E+02 0.252E+02   0.141E+02 -.105E+02 -.259E+02   -.480E+00 0.262E+00 0.701E+00   0.122E-01 -.348E-02 -.793E-02
   -.166E+02 0.111E+02 0.213E+02   0.178E+02 -.115E+02 -.218E+02   -.122E+01 0.364E+00 0.489E+00   -.308E-02 0.619E-02 0.409E-02
   -.147E+02 0.957E+01 0.247E+02   0.151E+02 -.983E+01 -.252E+02   -.400E+00 0.251E+00 0.458E+00   0.541E-02 0.579E-02 0.997E-02
   -.135E+02 0.959E+01 0.247E+02   0.138E+02 -.994E+01 -.252E+02   -.292E+00 0.342E+00 0.443E+00   -.118E-02 -.393E-02 -.673E-02
   -.147E+02 0.994E+01 0.252E+02   0.153E+02 -.998E+01 -.258E+02   -.542E+00 0.386E-01 0.581E+00   -.854E-02 0.411E-02 -.480E-02
   -.127E+02 0.104E+02 0.246E+02   0.132E+02 -.106E+02 -.252E+02   -.467E+00 0.221E+00 0.677E+00   0.775E-02 -.799E-03 -.113E-01
   -.136E+02 0.974E+01 0.254E+02   0.139E+02 -.996E+01 -.260E+02   -.290E+00 0.230E+00 0.605E+00   -.374E-02 -.640E-02 -.708E-02
   -.143E+02 0.892E+01 0.248E+02   0.147E+02 -.905E+01 -.255E+02   -.416E+00 0.134E+00 0.702E+00   0.431E-02 0.697E-03 0.814E-02
   0.148E+02 -.255E+02 0.754E+00   -.151E+02 0.263E+02 -.702E+00   0.338E+00 -.765E+00 -.442E-01   -.987E-02 -.391E-02 -.874E-02
   0.135E+02 -.268E+02 -.746E+00   -.138E+02 0.275E+02 0.889E+00   0.306E+00 -.768E+00 -.153E+00   0.101E-02 0.380E-02 0.137E-01
   0.102E+02 -.273E+02 0.267E+01   -.991E+01 0.287E+02 -.284E+01   -.222E+00 -.136E+01 0.157E+00   -.250E-01 0.161E-02 0.798E-02
   0.141E+02 -.263E+02 -.317E-01   -.144E+02 0.268E+02 -.113E+00   0.287E+00 -.560E+00 0.157E+00   0.256E-01 0.414E-02 -.840E-02
   0.137E+02 -.274E+02 0.530E-01   -.138E+02 0.282E+02 0.115E+00   0.129E+00 -.727E+00 -.172E+00   -.123E-01 -.171E-01 0.206E-02
   0.146E+02 -.267E+02 -.605E-01   -.150E+02 0.273E+02 0.708E-01   0.385E+00 -.605E+00 0.838E-02   -.149E-02 -.384E-02 -.178E-01
   0.147E+02 -.266E+02 0.299E+00   -.151E+02 0.274E+02 -.309E+00   0.399E+00 -.801E+00 0.592E-02   0.221E-01 0.703E-02 0.654E-02
   0.134E+02 -.272E+02 0.950E-01   -.136E+02 0.278E+02 -.170E+00   0.160E+00 -.667E+00 0.626E-01   0.527E-02 0.820E-02 0.490E-02
   -.309E-01 -.441E+00 -.169E+00   0.966E-01 0.488E+00 0.198E+00   -.472E-01 -.571E-02 -.992E-02   -.282E-02 0.362E-03 0.164E-03
 -----------------------------------------------------------------------------------------------
   -.792E-01 -.690E-01 -.611E-01   0.132E-13 -.142E-13 -.576E-13   0.260E-01 0.822E-01 0.119E+00   0.557E-01 -.131E-01 -.573E-01
 
 
 POSITION                                       TOTAL-FORCE (eV/Angst)
 -----------------------------------------------------------------------------------
     20.50636     10.75440      7.35179        -0.003087     -0.001479     -0.000224
     17.56119      9.21534      3.39009         0.002190      0.005597      0.002057
      4.57376      5.12356      0.58572        -0.005087     -0.000853      0.003488
      7.52662      6.66507      4.56023         0.000439      0.000972     -0.001297
      9.07325      2.05149      1.40578         0.001724      0.001728     -0.005319
      9.75744      2.41182      4.56072        -0.001313      0.003180      0.003440
      9.76033      5.12321      0.59397         0.001010     -0.005673     -0.005716
     12.69713      6.66628      4.56454        -0.002409     -0.002229     -0.002846
      3.89718      2.05128      1.40519        -0.000989      0.002090      0.002574
      6.84466      3.58120      5.37571         0.002035     -0.002807     -0.003379
      6.84315      6.31160      1.39003         0.001116     -0.004427      0.000969
      9.78879      7.85066      5.36931        -0.001890     -0.000598      0.000070
     12.34963      3.76668      2.57797        -0.001976      0.004801     -0.002447
      6.80957      0.86647      0.59407         0.004545     -0.001520     -0.000602
     12.02472      6.30921      1.40412        -0.006923     -0.001797     -0.000575
     14.95987      7.85931      5.38007        -0.002576      0.001407     -0.002256
      7.17823      3.75821      2.56893         0.003303      0.000108      0.001868
     10.11576      5.30990      6.54357        -0.003436     -0.002995      0.000606
     10.11630      8.02065      2.57535        -0.000024     -0.000297      0.004407
     13.06560      9.56766      6.54439        -0.001137     -0.003547     -0.007009
     12.02175      3.59733      5.37176         0.002267     -0.000650      0.004854
     15.29429      5.30885      6.55925         0.002420     -0.004860     -0.000718
     15.29136      8.03631      2.57378         0.001222      0.000819     -0.002915
     18.24220      9.56695      6.54207        -0.003287      0.001645      0.004091
      9.44130      4.95190      3.38481        -0.002176      0.004903     -0.001139
     12.37869      6.49736      7.35580         0.001763     -0.003230      0.001154
     12.38018      9.20612      3.38816         0.001149     -0.001878      0.000128
     15.32965     10.75283      7.35417        -0.002320     -0.003374     -0.002760
     14.60916      4.95266      3.38821         0.006966     -0.002371     -0.001789
     17.56518      6.49619      7.36219        -0.002582     -0.001904      0.000185
      1.63264      0.86550      0.59655        -0.003386      0.000775     -0.003470
      4.57563      2.40052      4.55733         0.004537     -0.000412      0.003058
      6.39318      4.41425      1.00038        -0.001713     -0.002930     -0.001232
      9.34156      5.95369      4.96384        -0.002038      0.002133      0.003527
      9.34321      8.66484      0.99903        -0.004542     -0.000585      0.002819
     12.29270     10.20300      4.96939         0.002260     -0.002029     -0.002616
     11.57692      4.41147      1.00040        -0.004954     -0.003212      0.000242
     14.47727      5.95198      5.00050         0.004667     -0.003815     -0.008024
     14.52068      8.67088      0.99493         0.004708     -0.001295      0.000097
     17.47290     10.21944      4.96660        -0.000414      0.005212     -0.001794
      5.35328      1.98453      0.23379        -0.001233     -0.000447      0.003678
      8.29892      3.52960      4.19639         0.004039      0.001317     -0.001668
      8.30372      6.23966      0.22840        -0.005139     -0.004812     -0.004706
     11.24654      7.78249      4.19806        -0.001089     -0.002078      0.001457
     10.52974      1.98265      0.24108         0.001517     -0.003640     -0.002159
     13.47997      3.52810      4.19756         0.000134      0.000217      0.000632
     13.47313      6.24009      0.22186        -0.001466     -0.001723      0.003996
     16.42609      7.83108      4.21295         0.000870      0.013430     -0.000697
      5.70991      3.77794      3.73321         0.004320      0.009819      0.001810
      8.66581      5.37933      7.72471         0.001549     -0.002455      0.001957
      8.65765      8.08875      3.74966        -0.002731      0.005179      0.001552
     11.60919      9.63823      7.70793        -0.001448     -0.007950      0.000272
     10.89164      3.83468      3.74941         0.000917      0.004441      0.004015
     13.83536      5.38118      7.72232        -0.001499     -0.000816     -0.002873
     13.83801      8.08899      3.75347         0.003164     -0.004100     -0.005136
     16.78634      9.63498      7.71437        -0.005668     -0.000595     -0.000851
      7.25974      1.92695      2.21494         0.004477     -0.001282      0.000062
     10.20397      3.47682      6.18115        -0.002180      0.001091      0.004109
     10.21645      6.18782      2.21263        -0.001087      0.003306     -0.001085
     13.14912      7.73846      6.18727        -0.002929     -0.006213     -0.003597
     12.43767      1.93265      2.21678        -0.001600      0.001568      0.000146
     15.38500      3.47738      6.17832         0.001415     -0.005427     -0.001073
     15.35495      6.20804      2.17066         0.004609     -0.001139      0.003936
     18.33190      7.73053      6.18065        -0.004027      0.001527     -0.000638
      3.80700      3.88759      1.76678        -0.001139     -0.000752      0.001159
      6.77983      5.41166      5.77507         0.005453     -0.003000      0.002355
      6.75291      8.14264      1.77021         0.000163     -0.001487     -0.000957
      9.70060      9.68517      5.73071        -0.001266     -0.002576      0.003073
      8.98984      3.88122      1.76323        -0.000140     -0.000823     -0.002015
     11.92195      5.43036      5.73576        -0.000704     -0.001197      0.002301
     11.93545      8.14149      1.76632        -0.000638      0.002005      0.001089
     14.87868      9.69137      5.73446        -0.001830     -0.000894     -0.003922
      4.66467      1.39633      2.98116        -0.000110      0.001488     -0.001070
      7.61773      2.94907      6.95342        -0.001570     -0.004511      0.003661
      7.65800      5.66643      2.95023         0.006586      0.003298     -0.006130
     10.56334      7.20849      6.94741        -0.003744     -0.003521      0.003437
      9.84430      1.41370      2.98089         0.005390      0.004534     -0.001720
     12.79641      2.95473      6.94805        -0.000660     -0.000526      0.000915
     12.79729      5.66453      2.98437        -0.003344     -0.003736      0.001873
     15.74592      7.20618      6.94945        -0.003021     -0.003735     -0.007426
     16.24493      5.78765      3.96699         0.015596      0.041610      0.018731
 -----------------------------------------------------------------------------------
    total drift:                                0.002567      0.000193      0.000628


--------------------------------------------------------------------------------------------------------



  FREE ENERGIE OF THE ION-ELECTRON SYSTEM (eV)
  ---------------------------------------------------
  free  energy   TOTEN  =      -597.89069842 eV

  energy  without entropy=     -597.89069842  energy(sigma->0) =     -597.89069842
 
 d Force = 0.2448473E-03[ 0.152E-03, 0.338E-03]  d Energy = 0.2728118E-03-0.280E-04
 d Force = 0.6101107E-02[ 0.548E-02, 0.672E-02]  d Ewald  = 0.6101536E-02-0.429E-06


--------------------------------------------------------------------------------------------------------


    POTLOK:  cpu time    0.3479: real time    0.3480


--------------------------------------------------------------------------------------------------------


 stress matrix after NEB project (eV)
      2.84322     -1.71979     -1.17290
     -1.71979      5.22737     -0.61356
     -1.17290     -0.61356      5.70185
  FORCES: max atom, RMS     0.048223    0.007684
  FORCE total and by dimension    0.069153    0.041610
  Stress total and by dimension    8.794318    5.701848
 Quasi-Newton relaxation of ions (Broydens 2nd method)
  g(Force)  = 0.231E-03   g(Stress)= 0.000E+00

 retain information from N=  3 steps
 eigenvalues of (default step * inverse Hessian matrix)
  average eigenvalue of G=   4.9152
 eigenvalue spectrum of G is  6.5026  6.5026  1.7406


--------------------------------------------------------------------------------------------------------


  
 reached required accuracy - stopping structural energy minimisation
     LOOP+:  cpu time   46.3789: real time   46.3937
    4ORBIT:  cpu time    0.0000: real time    0.0000

volume of typ            1:    52.8 %

volume of typ            2:    15.9 %

volume of typ            3:     0.0 %
 
total charge     
 
# of ion       s       p       d       tot
------------------------------------------
    1        0.646   1.100   0.745   2.490
    2        0.648   1.105   0.751   2.503
    3        0.648   1.105   0.751   2.505
    4        0.638   1.081   0.728   2.448
    5        0.651   1.112   0.757   2.520
    6        0.646   1.100   0.745   2.491
    7        0.646   1.100   0.745   2.490
    8        0.648   1.106   0.752   2.506
    9        0.647   1.102   0.747   2.495
   10        0.646   1.099   0.743   2.488
   11        0.646   1.099   0.744   2.488
   12        0.647   1.102   0.747   2.495
   13        0.647   1.102   0.747   2.495
   14        0.647   1.103   0.749   2.499
   15        0.647   1.102   0.747   2.495
   16        0.646   1.099   0.743   2.488
   17        0.646   1.099   0.744   2.489
   18        0.647   1.102   0.747   2.495
   19        0.647   1.102   0.747   2.495
   20        0.651   1.112   0.758   2.521
   21        0.647   1.101   0.746   2.495
   22        0.646   1.099   0.744   2.489
   23        0.646   1.099   0.744   2.489
   24        0.647   1.102   0.747   2.495
   25        0.648   1.105   0.751   2.505
   26        0.646   1.100   0.745   2.491
   27        0.646   1.100   0.745   2.491
   28        0.647   1.104   0.749   2.500
   29        0.638   1.080   0.727   2.445
   30        0.648   1.105   0.751   2.504
   31        0.646   1.100   0.745   2.490
   32        0.648   1.106   0.752   2.506
   33        1.406   3.392   0.005   4.803
   34        1.406   3.392   0.005   4.803
   35        1.406   3.393   0.005   4.804
   36        1.406   3.394   0.005   4.805
   37        1.406   3.393   0.005   4.804
   38        1.410   3.381   0.006   4.797
   39        1.406   3.394   0.005   4.805
   40        1.406   3.394   0.005   4.805
   41        1.406   3.393   0.005   4.804
   42        1.406   3.391   0.005   4.802
   43        1.406   3.394   0.005   4.805
   44        1.406   3.394   0.005   4.805
   45        1.406   3.394   0.005   4.805
   46        1.406   3.392   0.005   4.803
   47        1.406   3.394   0.005   4.805
   48        1.410   3.381   0.006   4.797
   49        1.411   3.380   0.006   4.796
   50        1.406   3.394   0.005   4.805
   51        1.406   3.392   0.005   4.803
   52        1.406   3.394   0.005   4.805
   53        1.406   3.393   0.005   4.805
   54        1.406   3.394   0.005   4.806
   55        1.406   3.392   0.005   4.803
   56        1.406   3.393   0.005   4.804
   57        1.406   3.394   0.005   4.806
   58        1.406   3.393   0.005   4.804
   59        1.406   3.394   0.005   4.805
   60        1.406   3.394   0.005   4.805
   61        1.406   3.393   0.005   4.804
   62        1.406   3.391   0.005   4.802
   63        1.410   3.381   0.006   4.797
   64        1.406   3.392   0.005   4.803
   65        1.406   3.392   0.005   4.803
   66        1.410   3.381   0.006   4.797
   67        1.406   3.392   0.005   4.803
   68        1.406   3.393   0.005   4.805
   69        1.406   3.394   0.005   4.805
   70        1.406   3.394   0.005   4.805
   71        1.406   3.393   0.005   4.804
   72        1.406   3.394   0.005   4.805
   73        1.406   3.394   0.005   4.805
   74        1.406   3.394   0.005   4.805
   75        1.410   3.381   0.006   4.797
   76        1.406   3.393   0.005   4.804
   77        1.406   3.394   0.005   4.805
   78        1.406   3.393   0.005   4.804
   79        1.406   3.392   0.005   4.803
   80        1.406   3.392   0.005   4.802
   81        0.179   0.001   0.000   0.180
--------------------------------------------------
tot          88.38  198.02   24.13  310.53
 
magnetization (x)
 
# of ion       s       p       d       tot
------------------------------------------
    1       -0.000  -0.000  -0.000  -0.000
    2        0.001   0.001   0.001   0.004
    3        0.001   0.001   0.001   0.004
    4       -0.002   0.002   0.015   0.015
    5        0.002   0.000   0.000   0.003
    6       -0.000  -0.000  -0.000  -0.000
    7       -0.000  -0.000  -0.000  -0.000
    8        0.001   0.001   0.001   0.004
    9        0.000   0.000   0.000   0.000
   10       -0.000  -0.001   0.000  -0.001
   11       -0.000  -0.000   0.000  -0.000
   12        0.000  -0.000   0.000   0.000
   13        0.000  -0.000   0.000   0.000
   14        0.000   0.000   0.000   0.000
   15        0.000   0.000   0.000   0.000
   16       -0.000  -0.000   0.000  -0.000
   17       -0.000  -0.000   0.000  -0.001
   18        0.000   0.000   0.000   0.000
   19        0.000   0.000   0.000   0.000
   20        0.002   0.000   0.000   0.003
   21        0.000   0.000   0.000   0.000
   22       -0.000  -0.000   0.000  -0.000
   23       -0.000  -0.000   0.000  -0.000
   24        0.000   0.000   0.000   0.000
   25        0.001   0.001   0.001   0.004
   26       -0.000  -0.000  -0.000  -0.000
   27       -0.000  -0.000  -0.000  -0.000
   28        0.000   0.000   0.000   0.000
   29       -0.002   0.003   0.016   0.017
   30        0.001   0.001   0.001   0.004
   31       -0.000  -0.000  -0.000  -0.000
   32        0.001   0.002   0.001   0.004
   33       -0.000  -0.000  -0.000  -0.000
   34        0.000  -0.000  -0.000  -0.000
   35        0.000   0.000   0.000   0.000
   36        0.000   0.001   0.000   0.001
   37        0.000  -0.000   0.000   0.000
   38        0.005   0.041   0.000   0.046
   39        0.000  -0.000   0.000   0.000
   40        0.000   0.001   0.000   0.002
   41        0.000   0.000   0.000   0.000
   42       -0.000  -0.000  -0.000  -0.000
   43        0.000  -0.000   0.000   0.000
   44        0.000  -0.000   0.000   0.000
   45        0.000   0.000   0.000   0.001
   46        0.000  -0.000  -0.000  -0.000
   47        0.000   0.001   0.000   0.002
   48        0.004   0.038   0.000   0.043
   49        0.005   0.044   0.001   0.049
   50        0.000   0.001   0.000   0.002
   51        0.000  -0.000  -0.000  -0.000
   52        0.000   0.000   0.000   0.001
   53        0.000  -0.000   0.000   0.000
   54        0.000  -0.000   0.000   0.000
   55       -0.000  -0.000  -0.000  -0.000
   56        0.000   0.000   0.000   0.000
   57        0.000  -0.000   0.000   0.000
   58        0.000   0.000   0.000   0.000
   59        0.000   0.001   0.000   0.002
   60        0.000   0.000   0.000   0.001
   61        0.000  -0.000   0.000   0.000
   62       -0.000  -0.000  -0.000  -0.000
   63        0.005   0.042   0.000   0.047
   64        0.000  -0.000  -0.000  -0.000
   65        0.000  -0.000  -0.000  -0.000
   66        0.005   0.040   0.000   0.045
   67       -0.000  -0.000  -0.000  -0.000
   68        0.000  -0.000   0.000   0.000
   69        0.000   0.000   0.000   0.001
   70        0.000   0.001   0.000   0.002
   71        0.000   0.000   0.000   0.000
   72        0.000  -0.000   0.000   0.000
   73        0.000   0.001   0.000   0.002
   74        0.000  -0.000   0.000   0.000
   75        0.005   0.041   0.000   0.046
   76        0.000  -0.000   0.000   0.000
   77        0.000   0.000   0.000   0.001
   78        0.000   0.000   0.000   0.000
   79        0.000  -0.000  -0.000  -0.000
   80       -0.000  -0.000  -0.000  -0.000
   81        0.132   0.000   0.000   0.132
--------------------------------------------------
tot           0.17    0.27    0.04    0.48
 

 total amount of memory used by VASP MPI-rank0   119711. kBytes
=======================================================================

   base      :      30000. kBytes
   nonl-proj :      26545. kBytes
   fftplans  :       8259. kBytes
   grid      :      36662. kBytes
   one-center:        497. kBytes
   wavefun   :      17748. kBytes
 
  
  
 General timing and accounting informations for this job:
 ========================================================
  
                  Total CPU time used (sec):     1483.060
                            User time (sec):     1471.837
                          System time (sec):       11.222
                         Elapsed time (sec):     1513.771
  
                   Maximum memory used (kb):      255732.
                   Average memory used (kb):           0.
  
                          Minor page faults:        31185
                          Major page faults:            0
                 Voluntary context switches:         1062
