 vasp.5.4.4.18Apr17-6-g9f103f2a35 (build Apr 18 2019 12:40:38) complex          
  
 executed on             LinuxIFC date 2022.01.22  08:35:59
 running on    8 total cores
 distrk:  each k-point on    8 cores,    1 groups
 distr:  one band on NCORES_PER_BAND=   1 cores,    8 groups


--------------------------------------------------------------------------------------------------------


 INCAR:
 POTCAR:    PAW_PBE Al 04Jan2001                  
 POTCAR:    PAW_PBE O 08Apr2002                   
 POTCAR:    PAW_PBE H 15Jun2001                   

 ----------------------------------------------------------------------------- 
|                                                                             |
|           W    W    AA    RRRRR   N    N  II  N    N   GGGG   !!!           |
|           W    W   A  A   R    R  NN   N  II  NN   N  G    G  !!!           |
|           W    W  A    A  R    R  N N  N  II  N N  N  G       !!!           |
|           W WW W  AAAAAA  RRRRR   N  N N  II  N  N N  G  GGG   !            |
|           WW  WW  A    A  R   R   N   NN  II  N   NN  G    G                |
|           W    W  A    A  R    R  N    N  II  N    N   GGGG   !!!           |
|                                                                             |
|      For optimal performance we recommend to set                            |
|        NCORE= 4 - approx SQRT( number of cores)                             |
|      NCORE specifies how many cores store one orbital (NPAR=cpu/NCORE).     |
|      This setting can  greatly improve the performance of VASP for DFT.     |
|      The default,   NCORE=1            might be grossly inefficient         |
|      on modern multi-core architectures or massively parallel machines.     |
|      Do your own testing !!!!                                               |
|      Unfortunately you need to use the default for GW and RPA calculations. |
|      (for HF NCORE is supported but not extensively tested yet)             |
|                                                                             |
 ----------------------------------------------------------------------------- 

 POTCAR:    PAW_PBE Al 04Jan2001                  
   VRHFIN =Al: s2p1                                                             
   LEXCH  = PE                                                                  
   EATOM  =    53.5387 eV,    3.9350 Ry                                         
                                                                                
   TITEL  = PAW_PBE Al 04Jan2001                                                
   LULTRA =        F    use ultrasoft PP ?                                      
   IUNSCR =        1    unscreen: 0-lin 1-nonlin 2-no                           
   RPACOR =    1.500    partial core radius                                     
   POMASS =   26.981; ZVAL   =    3.000    mass and valenz                      
   RCORE  =    1.900    outmost cutoff radius                                   
   RWIGS  =    2.650; RWIGS  =    1.402    wigner-seitz radius (au A)           
   ENMAX  =  240.300; ENMIN  =  180.225 eV                                      
   ICORE  =        2    local potential                                         
   LCOR   =        T    correct aug charges                                     
   LPAW   =        T    paw PP                                                  
   EAUG   =  291.052                                                            
   DEXC   =    0.000                                                            
   RMAX   =    1.939    core radius for proj-oper                               
   RAUG   =    1.300    factor for augmentation sphere                          
   RDEP   =    1.966    radius for radial grids                                 
   RDEPT  =    1.856    core radius for aug-charge                              
                                                                                
   Atomic configuration                                                         
    6 entries                                                                   
     n  l   j            E        occ.                                          
     1  0  0.50     -1511.1048   2.0000                                         
     2  0  0.50      -108.1629   2.0000                                         
     2  1  1.50       -69.6402   6.0000                                         
     3  0  0.50        -7.7528   2.0000                                         
     3  1  1.50        -2.7121   1.0000                                         
     3  2  2.50        -2.7212   0.0000                                         
   Description                                                                  
     l       E           TYP  RCUT    TYP  RCUT                                 
     0     -7.7528455     23  1.900                                             
     0     -3.3096929     23  1.900                                             
     1     -2.7120682     23  1.900                                             
     1     13.6058260     23  1.900                                             
     2     -2.7211652      7  1.900                                             
  local pseudopotential read in
  partial core-charges read in
  partial kinetic energy density read in
  atomic valenz-charges read in
  non local Contribution for L=           0  read in
    real space projection operators read in
  non local Contribution for L=           0  read in
    real space projection operators read in
  non local Contribution for L=           1  read in
    real space projection operators read in
  non local Contribution for L=           1  read in
    real space projection operators read in
    PAW grid and wavefunctions read in
 
   number of l-projection  operators is LMAX  =           4
   number of lm-projection operators is LMMAX =           8
 
 POTCAR:    PAW_PBE O 08Apr2002                   
   VRHFIN =O: s2p4                                                              
   LEXCH  = PE                                                                  
   EATOM  =   432.3788 eV,   31.7789 Ry                                         
                                                                                
   TITEL  = PAW_PBE O 08Apr2002                                                 
   LULTRA =        F    use ultrasoft PP ?                                      
   IUNSCR =        1    unscreen: 0-lin 1-nonlin 2-no                           
   RPACOR =    1.200    partial core radius                                     
   POMASS =   16.000; ZVAL   =    6.000    mass and valenz                      
   RCORE  =    1.520    outmost cutoff radius                                   
   RWIGS  =    1.550; RWIGS  =    0.820    wigner-seitz radius (au A)           
   ENMAX  =  400.000; ENMIN  =  300.000 eV                                      
   ICORE  =        2    local potential                                         
   LCOR   =        T    correct aug charges                                     
   LPAW   =        T    paw PP                                                  
   EAUG   =  605.392                                                            
   DEXC   =    0.000                                                            
   RMAX   =    1.553    core radius for proj-oper                               
   RAUG   =    1.300    factor for augmentation sphere                          
   RDEP   =    1.550    radius for radial grids                                 
   RDEPT  =    1.329    core radius for aug-charge                              
                                                                                
   Atomic configuration                                                         
    4 entries                                                                   
     n  l   j            E        occ.                                          
     1  0  0.50      -514.6923   2.0000                                         
     2  0  0.50       -23.9615   2.0000                                         
     2  1  0.50        -9.0305   4.0000                                         
     3  2  1.50        -9.5241   0.0000                                         
   Description                                                                  
     l       E           TYP  RCUT    TYP  RCUT                                 
     0    -23.9615318     23  1.200                                             
     0     -9.5240782     23  1.200                                             
     1     -9.0304911     23  1.520                                             
     1      8.1634956     23  1.520                                             
     2     -9.5240782      7  1.500                                             
  local pseudopotential read in
  partial core-charges read in
  partial kinetic energy density read in
  kinetic energy density of atom read in
  atomic valenz-charges read in
  non local Contribution for L=           0  read in
    real space projection operators read in
  non local Contribution for L=           0  read in
    real space projection operators read in
  non local Contribution for L=           1  read in
    real space projection operators read in
  non local Contribution for L=           1  read in
    real space projection operators read in
    PAW grid and wavefunctions read in
 
   number of l-projection  operators is LMAX  =           4
   number of lm-projection operators is LMMAX =           8
 
 POTCAR:    PAW_PBE H 15Jun2001                   
   VRHFIN =H: ultrasoft test                                                    
   LEXCH  = PE                                                                  
   EATOM  =    12.4884 eV,    0.9179 Ry                                         
                                                                                
   TITEL  = PAW_PBE H 15Jun2001                                                 
   LULTRA =        F    use ultrasoft PP ?                                      
   IUNSCR =        0    unscreen: 0-lin 1-nonlin 2-no                           
   RPACOR =    0.000    partial core radius                                     
   POMASS =    1.000; ZVAL   =    1.000    mass and valenz                      
   RCORE  =    1.100    outmost cutoff radius                                   
   RWIGS  =    0.700; RWIGS  =    0.370    wigner-seitz radius (au A)           
   ENMAX  =  250.000; ENMIN  =  200.000 eV                                      
   RCLOC  =    0.701    cutoff for local pot                                    
   LCOR   =        T    correct aug charges                                     
   LPAW   =        T    paw PP                                                  
   EAUG   =  400.000                                                            
   RMAX   =    1.123    core radius for proj-oper                               
   RAUG   =    1.200    factor for augmentation sphere                          
   RDEP   =    1.112    radius for radial grids                                 
   RDEPT  =    0.926    core radius for aug-charge                              
                                                                                
   Atomic configuration                                                         
    2 entries                                                                   
     n  l   j            E        occ.                                          
     1  0  0.50        -6.4927   1.0000                                         
     2  1  0.50        -3.4015   0.0000                                         
   Description                                                                  
     l       E           TYP  RCUT    TYP  RCUT                                 
     0     -6.4927494     23  1.100                                             
     0      6.8029130     23  1.100                                             
     1     -4.0817478     23  1.100                                             
  local pseudopotential read in
  atomic valenz-charges read in
  non local Contribution for L=           0  read in
    real space projection operators read in
  non local Contribution for L=           0  read in
    real space projection operators read in
  non local Contribution for L=           1  read in
    real space projection operators read in
    PAW grid and wavefunctions read in
 
   number of l-projection  operators is LMAX  =           3
   number of lm-projection operators is LMMAX =           5
 

 ----------------------------------------------------------------------------- 
|                                                                             |
|  ADVICE TO THIS USER RUNNING 'VASP/VAMP'   (HEAR YOUR MASTER'S VOICE ...):  |
|                                                                             |
|      You have a (more or less) 'large supercell' and for larger cells       |
|      it might be more efficient to use real space projection opertators     |
|      So try LREAL= Auto  in the INCAR   file.                               |
|      Mind:          For very  accurate calculation you might also keep the  |
|      reciprocal projection scheme          (i.e. LREAL=.FALSE.)             |
|                                                                             |
 ----------------------------------------------------------------------------- 

  PAW_PBE Al 04Jan2001                  :
 energy of atom  1       EATOM=  -53.5387
 kinetic energy error for atom=    0.0003 (will be added to EATOM!!)
  PAW_PBE O 08Apr2002                   :
 energy of atom  2       EATOM= -432.3788
 kinetic energy error for atom=    0.0224 (will be added to EATOM!!)
  PAW_PBE H 15Jun2001                   :
 energy of atom  3       EATOM=  -12.4884
 kinetic energy error for atom=    0.0020 (will be added to EATOM!!)
 
 
 POSCAR: Al4 O6                                  
  positions in direct lattice
  No initial velocities read in
 exchange correlation table for  LEXCH =        8
   RHO(1)=    0.500       N(1)  =     2000
   RHO(2)=  100.500       N(2)  =     4000

 VTST: version 3.2, (02/03/18)

 CHAIN: initializing optimizer
 
 OPT: Using VASP QUASI-newton optimizer
 CHAIN: Read ICHAIN            0
 
 POSCAR: Al4 O6                                  
  positions in direct lattice
  No initial velocities read in
 


--------------------------------------------------------------------------------------------------------


 ion  position               nearest neighbor table
   1  0.927  0.928  0.921-  62 1.85  52 1.88  78 1.93  39 1.93  68 2.01  47 2.07  24 2.68  32 2.77
                             3 2.83  14 2.85  22 3.18  23 3.29  20 3.30
   2  0.917  0.932  0.432-  61 1.82  40 1.85  51 1.87  77 1.98  48 2.02  67 2.06  23 2.64   6 2.73
                            31 2.82   4 2.83  24 3.21  13 3.28  19 3.32
   3  0.081  0.574  0.065-  76 1.74  47 1.90  52 1.94  33 1.97  65 1.98  63 2.06  11 2.65  26 2.74
                             1 2.83  29 2.95  12 3.15   9 3.30
   4  0.072  0.577  0.572-  75 1.86  48 1.87  66 1.92  34 1.92  64 1.96  51 2.04  12 2.73  25 2.82
                             2 2.83  30 2.84  11 3.26  10 3.26  16 3.28
   5  0.682  0.176  0.173-  45 1.82  77 1.88  54 1.90  69 1.91  57 1.98  39 2.01  14 2.67  22 2.82
                            17 2.84  23 2.87   7 3.22  31 3.25   6 3.32
   6  0.577  0.082  0.578-  53 1.86  77 1.86  40 1.89  42 1.91  58 1.92  72 1.96  21 2.68   2 2.73
                            28 2.77  25 2.81  10 3.25  16 3.30   5 3.32
   7  0.570  0.572  0.071-  43 1.83  69 1.85  37 1.91  80 1.92  59 2.00  56 2.07  15 2.68  28 2.80
                            25 2.81  30 2.82  11 3.21   5 3.22  16 3.31
   8  0.577  0.562  0.571-  79 1.80  70 1.89  38 1.92  44 1.98  60 2.02  55 2.06  16 2.72  29 2.84
                            26 2.89  27 2.90  21 3.12  15 3.22  12 3.31  13 3.36
   9  0.175  0.170  0.182-  73 1.79  65 1.87  41 1.90  50 1.94  61 1.99  35 2.11  31 2.64  19 2.70
                            13 2.82  18 2.88  32 3.25  14 3.25   3 3.30
  10  0.181  0.175  0.680-  74 1.80  42 1.82  66 1.84  62 1.97  36 2.00  49 2.02  32 2.68  22 2.76
                            20 2.81  17 2.87   6 3.25  31 3.25   4 3.26
  11  0.177  0.672  0.174-  81 0.98  75 1.85  67 1.87  43 1.91  63 1.94  33 2.01  52 2.03   3 2.65
                            23 2.69  17 2.75  20 2.87   7 3.21  31 3.23   4 3.26
  12  0.168  0.687  0.679-  68 1.80  44 1.89  76 1.90  51 2.05  64 2.06  34 2.08   4 2.73  24 2.77
                            18 2.81  19 2.87   3 3.15  32 3.19   8 3.31
  13  0.825  0.331  0.326-  79 1.90  65 1.91  53 1.94  61 1.96  37 2.00  46 2.07  29 2.70  15 2.80
                             9 2.82  21 2.87   2 3.28  30 3.29  25 3.29   8 3.36
  14  0.571  0.077  0.077-  71 1.85  41 1.87  54 1.91  39 1.94  57 1.95  78 1.96   5 2.67  26 2.73
                            27 2.79   1 2.85  21 3.19   9 3.25  15 3.29
  15  0.667  0.678  0.176-  71 1.88  79 1.89  47 1.91  37 1.93  56 1.94  59 1.94   7 2.68  19 2.77
                            13 2.80  24 2.81   8 3.22  14 3.29
  16  0.672  0.685  0.665-  72 1.82  48 1.86  55 1.86  80 1.87  38 2.02  60 2.10   8 2.72  20 2.73
                            23 2.78  22 2.97   4 3.28   6 3.30   7 3.31
  17  0.329  0.331  0.321-  33 1.84  57 1.87  49 1.92  69 1.92  75 1.95  42 2.04  25 2.60  11 2.75
                             5 2.84  10 2.87  26 3.21  29 3.22  27 3.30
  18  0.316  0.336  0.823-  34 1.86  70 1.90  50 1.91  58 1.95  76 1.97  41 1.98  26 2.61  12 2.81
                             9 2.88  21 2.93  30 3.22  25 3.28
  19  0.323  0.834  0.320-  35 1.87  51 1.88  44 1.92  59 1.95  73 2.02  71 2.03  27 2.67   9 2.70
                            15 2.77  12 2.87  25 3.30  28 3.31   2 3.32
  20  0.331  0.824  0.816-  36 1.85  60 1.85  52 1.92  72 1.94  43 1.96  74 1.97  28 2.61  16 2.73
                            10 2.81  11 2.87  27 3.18   1 3.30  26 3.31
  21  0.683  0.176  0.685-  78 1.75  70 1.81  46 1.86  53 2.05  40 2.06  58 2.11   6 2.68  24 2.81
                            13 2.87  18 2.93   8 3.12  14 3.19  32 3.22
  22  0.835  0.315  0.820-  62 1.84  45 1.93  38 1.95  66 1.95  54 2.01  80 2.04  30 2.68  10 2.76
                             5 2.82  16 2.97  29 3.14   1 3.18  26 3.36
  23  0.842  0.818  0.320-  63 1.84  81 1.90  67 1.91  48 1.91  39 1.93  55 1.95  77 2.11   2 2.64
                            11 2.69  16 2.78   5 2.87  29 3.24   1 3.29  27 3.35
  24  0.821  0.822  0.827-  56 1.82  40 1.85  64 1.89  68 1.94  47 1.95  78 2.02   1 2.68  12 2.77
                            15 2.81  21 2.81   2 3.21  30 3.23  28 3.24
  25  0.424  0.430  0.423-  59 1.83  34 1.92  53 1.94  69 1.94  42 1.98  75 2.01  17 2.60   7 2.81
                             6 2.81   4 2.82  18 3.28  13 3.29  19 3.30
  26  0.422  0.418  0.933-  33 1.85  54 1.90  60 1.90  41 1.97  76 1.99  70 2.04  18 2.61  14 2.73
                             3 2.74   8 2.89  17 3.21  20 3.31  22 3.36
  27  0.430  0.926  0.426-  36 1.88  55 1.92  57 1.93  71 1.97  44 2.00  73 2.05  19 2.67  14 2.79
                            32 2.82   8 2.90  20 3.18  17 3.30  23 3.35
  28  0.427  0.923  0.919-  35 1.84  58 1.88  56 1.89  72 1.94  43 1.99  74 1.99  20 2.61   6 2.77
                            31 2.80   7 2.80  24 3.24  19 3.31
  29  0.934  0.421  0.435-  49 1.82  38 1.83  63 1.86  46 1.98  65 2.02  79 2.15  13 2.70  32 2.76
                             8 2.84   3 2.95  22 3.14  17 3.22  23 3.24
  30  0.924  0.427  0.926-  64 1.83  37 1.90  50 1.92  66 1.99  45 2.02  80 2.07  22 2.68   7 2.82
                             4 2.84  31 2.91  18 3.22  24 3.23  13 3.29
  31  0.080  0.065  0.080-  67 1.84  35 1.91  74 1.92  45 1.97  61 1.99  50 2.01   9 2.64  28 2.80
                             2 2.82  30 2.91  11 3.23   5 3.25  10 3.25
  32  0.078  0.075  0.577-  46 1.82  73 1.86  68 1.90  49 1.94  36 1.94  62 1.95  10 2.68  29 2.76
                             1 2.77  27 2.82  12 3.19  21 3.22   9 3.25
  33  0.276  0.463  0.130-  17 1.84  26 1.85   3 1.97  11 2.01
  34  0.266  0.474  0.628-  18 1.86   4 1.92  25 1.92  12 2.08
  35  0.284  0.959  0.118-  28 1.84  19 1.87  31 1.91   9 2.11
  36  0.279  0.975  0.624-  20 1.85  27 1.88  32 1.94  10 2.00
  37  0.763  0.484  0.121-  30 1.90   7 1.91  15 1.93  13 2.00
  38  0.770  0.472  0.623-  29 1.83   8 1.92  22 1.95  16 2.02
  39  0.771  0.969  0.129-   1 1.93  23 1.93  14 1.94   5 2.01
  40  0.770  0.970  0.633-   2 1.85  24 1.85   6 1.89  21 2.06
  41  0.376  0.215  0.025-  14 1.87   9 1.90  26 1.97  18 1.98
  42  0.372  0.226  0.536-  10 1.82   6 1.91  25 1.98  17 2.04
  43  0.380  0.716  0.019-   7 1.83  11 1.91  20 1.96  28 1.99
  44  0.370  0.730  0.520-  12 1.89  19 1.92   8 1.98  27 2.00
  45  0.875  0.220  0.023-   5 1.82  22 1.93  31 1.97  30 2.02
  46  0.882  0.218  0.537-  32 1.82  21 1.86  29 1.98  13 2.07
  47  0.874  0.715  0.026-   3 1.90  15 1.91  24 1.95   1 2.07
  48  0.874  0.722  0.526-  16 1.86   4 1.87  23 1.91   2 2.02
  49  0.131  0.273  0.473-  29 1.82  17 1.92  32 1.94  10 2.02
  50  0.122  0.275  0.984-  18 1.91  30 1.92   9 1.94  31 2.01
  51  0.123  0.788  0.465-   2 1.87  19 1.88   4 2.04  12 2.05
  52  0.128  0.776  0.965-   1 1.88  20 1.92   3 1.94  11 2.03
  53  0.624  0.274  0.481-   6 1.86  25 1.94  13 1.94  21 2.05
  54  0.620  0.272  0.987-  26 1.90   5 1.90  14 1.91  22 2.01
  55  0.635  0.770  0.470-  16 1.86  27 1.92  23 1.95   8 2.06
  56  0.625  0.783  0.972-  24 1.82  28 1.89  15 1.94   7 2.07
  57  0.475  0.133  0.272-  17 1.87  27 1.93  14 1.95   5 1.98
  58  0.467  0.126  0.781-  28 1.88   6 1.92  18 1.95  21 2.11
  59  0.470  0.625  0.275-  25 1.83  15 1.94  19 1.95   7 2.00
  60  0.459  0.624  0.776-  20 1.85  26 1.90   8 2.02  16 2.10
  61  0.971  0.120  0.284-   2 1.82  13 1.96   9 1.99  31 1.99
  62  0.984  0.117  0.780-  22 1.84   1 1.85  32 1.95  10 1.97
  63  0.979  0.619  0.280-  81 1.08  23 1.84  29 1.86  11 1.94   3 2.06
  64  0.966  0.622  0.777-  30 1.83  24 1.89   4 1.96  12 2.06
  65  0.028  0.367  0.231-   9 1.87  13 1.91   3 1.98  29 2.02
  66  0.031  0.371  0.723-  10 1.84   4 1.92  22 1.95  30 1.99
  67  0.036  0.869  0.225-  31 1.84  11 1.87  23 1.91   2 2.06
  68  0.016  0.882  0.715-  12 1.80  32 1.90  24 1.94   1 2.01
  69  0.528  0.376  0.226-   7 1.85   5 1.91  17 1.92  25 1.94
  70  0.521  0.368  0.724-  21 1.81   8 1.89  18 1.90  26 2.04
  71  0.535  0.877  0.222-  14 1.85  15 1.88  27 1.97  19 2.03
  72  0.529  0.873  0.718-  16 1.82  20 1.94  28 1.94   6 1.96
  73  0.218  0.041  0.373-   9 1.79  32 1.86  19 2.02  27 2.05
  74  0.220  0.024  0.873-  10 1.80  31 1.92  20 1.97  28 1.99
  75  0.216  0.532  0.375-  11 1.85   4 1.86  17 1.95  25 2.01
  76  0.217  0.534  0.879-   3 1.74  12 1.90  18 1.97  26 1.99
  77  0.714  0.034  0.381-   6 1.86   5 1.88   2 1.98  23 2.11
  78  0.730  0.032  0.868-  21 1.75   1 1.93  14 1.96  24 2.02
  79  0.717  0.528  0.375-   8 1.80  15 1.89  13 1.90  29 2.15
  80  0.718  0.534  0.863-  16 1.87   7 1.92  22 2.04  30 2.07
  81  0.066  0.663  0.256-  11 0.98  63 1.08  23 1.90
 
  LATTYP: Found a trigonal (rhomboedric) cell.
 ALAT       =    10.3559103012
 COS(alpha) =     0.5694285754
  
  Lattice vectors:
  
 A1 = (  10.3559103012,   0.0000000000,   0.0000000000)
 A2 = (   5.8969512495,   8.5129809190,   0.0000000000)
 A3 = (   5.8969512495,   3.0887258413,   7.9328819987)


Analysis of symmetry for initial positions (statically):
=====================================================================
 Subroutine PRICEL returns:
 Original cell was already a primitive cell.
 

 Routine SETGRP: Setting up the symmetry group for a 
 trigonal (rhombohedral) supercell.


 Subroutine GETGRP returns: Found  1 space group operations
 (whereof  1 operations were pure point group operations)
 out of a pool of 12 trial point group operations.


The static configuration has the point symmetry C_1 .


Analysis of symmetry for dynamics (positions and initial velocities):
=====================================================================
 Subroutine PRICEL returns:
 Original cell was already a primitive cell.
 

 Routine SETGRP: Setting up the symmetry group for a 
 trigonal (rhombohedral) supercell.


 Subroutine GETGRP returns: Found  1 space group operations
 (whereof  1 operations were pure point group operations)
 out of a pool of 12 trial point group operations.


The dynamic configuration has the point symmetry C_1 .


Analysis of structural, dynamic, and magnetic symmetry:
=====================================================================
 Subroutine PRICEL returns:
 Original cell was already a primitive cell.
 

 Routine SETGRP: Setting up the symmetry group for a 
 trigonal (rhombohedral) supercell.


 Subroutine GETGRP returns: Found  1 space group operations
 (whereof  1 operations were pure point group operations)
 out of a pool of 12 trial point group operations.


The magnetic configuration has the point symmetry C_1 .


 Subroutine INISYM returns: Found  1 space group operations
 (whereof  1 operations are pure point group operations),
 and found     1 'primitive' translations

 
 
 KPOINTS: Al2O3                                   

Automatic generation of k-mesh.
Space group operators:
 irot       det(A)        alpha          n_x          n_y          n_z        tau_x        tau_y        tau_z
    1     1.000000     0.000000     1.000000     0.000000     0.000000     0.000000     0.000000     0.000000
 
 Subroutine IBZKPT returns following result:
 ===========================================
 
 Found      1 irreducible k-points:
 
 Following reciprocal coordinates:
            Coordinates               Weight
  0.000000  0.000000  0.000000      1.000000
 
 Following cartesian coordinates:
            Coordinates               Weight
  0.000000  0.000000  0.000000      1.000000
 


--------------------------------------------------------------------------------------------------------




 Dimension of arrays:
   k-points           NKPTS =      1   k-points in BZ     NKDIM =      1   number of bands    NBANDS=    240
   number of dos      NEDOS =    301   number of ions     NIONS =     81
   non local maximal  LDIM  =      4   non local SUM 2l+1 LMDIM =      8
   total plane-waves  NPLWV = 216000
   max r-space proj   IRMAX =      1   max aug-charges    IRDMAX=  12219
   dimension x,y,z NGX =    60 NGY =   60 NGZ =   60
   dimension x,y,z NGXF=   120 NGYF=  120 NGZF=  120
   support grid    NGXF=   120 NGYF=  120 NGZF=  120
   ions per type =              32  48   1
   NGX,Y,Z   is equivalent  to a cutoff of   9.63,  9.63,  9.63 a.u.
   NGXF,Y,Z  is equivalent  to a cutoff of  19.26, 19.26, 19.26 a.u.

 SYSTEM =  Al2O3                                   
 POSCAR =  Al4 O6                                  

 Startparameter for this run:
   NWRITE =      2    write-flag & timer
   PREC   = normal    normal or accurate (medium, high low for compatibility)
   ISTART =      0    job   : 0-new  1-cont  2-samecut
   ICHARG =      2    charge: 1-file 2-atom 10-const
   ISPIN  =      2    spin polarized calculation?
   LNONCOLLINEAR =      F non collinear calculations
   LSORBIT =      F    spin-orbit coupling
   INIWAV =      1    electr: 0-lowe 1-rand  2-diag
   LASPH  =      F    aspherical Exc in radial PAW
   METAGGA=      F    non-selfconsistent MetaGGA calc.

 Electronic Relaxation 1
   ENCUT  =  500.0 eV  36.75 Ry    6.06 a.u.  18.88 18.88 18.88*2*pi/ulx,y,z
   ENINI  =  500.0     initial cutoff
   ENAUG  =  605.4 eV  augmentation charge cutoff
   NELM   =     60;   NELMIN=  2; NELMDL= -5     # of ELM steps 
   EDIFF  = 0.1E-03   stopping-criterion for ELM
   LREAL  =      F    real-space projection
   NLSPLINE    = F    spline interpolate recip. space projectors
   LCOMPAT=      F    compatible to vasp.4.4
   GGA_COMPAT  = T    GGA compatible to vasp.4.4-vasp.4.6
   LMAXPAW     = -100 max onsite density
   LMAXMIX     =    2 max onsite mixed and CHGCAR
   VOSKOWN=      0    Vosko Wilk Nusair interpolation
   ROPT   =    0.00000   0.00000   0.00000
 Ionic relaxation
   EDIFFG = -.5E-01   stopping-criterion for IOM
   NSW    =   1000    number of steps for IOM
   NBLOCK =      1;   KBLOCK =   1000    inner block; outer block 
   IBRION =      1    ionic relax: 0-MD 1-quasi-New 2-CG
   NFREE  =      0    steps in history (QN), initial steepest desc. (CG)
   ISIF   =      2    stress and relaxation
   IWAVPR =     11    prediction:  0-non 1-charg 2-wave 3-comb
   ISYM   =      2    0-nonsym 1-usesym 2-fastsym
   LCORR  =      T    Harris-Foulkes like correction to forces

   POTIM  = 0.5000    time-step for ionic-motion
   TEIN   =    0.0    initial temperature
   TEBEG  =    0.0;   TEEND  =   0.0 temperature during run
   SMASS  =  -3.00    Nose mass-parameter (am)
   estimated Nose-frequenzy (Omega)   =  0.10E-29 period in steps =****** mass=  -0.245E-26a.u.
   SCALEE = 1.0000    scale energy and forces
   NPACO  =    256;   APACO  = 16.0  distance and # of slots for P.C.
   PSTRESS=    0.0 pullay stress

  Mass of Ions in am
   POMASS =  26.98 16.00  1.00
  Ionic Valenz
   ZVAL   =   3.00  6.00  1.00
  Atomic Wigner-Seitz radii
   RWIGS  =   1.40  0.82  0.37
  virtual crystal weights 
   VCA    =   1.00  1.00  1.00
   NELECT =     385.0000    total number of electrons
   NUPDOWN=      -1.0000    fix difference up-down

 DOS related values:
   EMIN   =  10.00;   EMAX   =-10.00  energy-range for DOS
   EFERMI =   0.00
   ISMEAR =     0;   SIGMA  =   0.05  broadening in eV -4-tet -1-fermi 0-gaus

 Electronic relaxation 2 (details)
   IALGO  =     38    algorithm
   LDIAG  =      T    sub-space diagonalisation (order eigenvalues)
   LSUBROT=      F    optimize rotation matrix (better conditioning)
   TURBO    =      0    0=normal 1=particle mesh
   IRESTART =      0    0=no restart 2=restart with 2 vectors
   NREBOOT  =      0    no. of reboots
   NMIN     =      0    reboot dimension
   EREF     =   0.00    reference energy to select bands
   IMIX   =      4    mixing-type and parameters
     AMIX     =   0.40;   BMIX     =  1.00
     AMIX_MAG =   1.60;   BMIX_MAG =  1.00
     AMIN     =   0.10
     WC   =   100.;   INIMIX=   1;  MIXPRE=   1;  MAXMIX= -45

 Intra band minimization:
   WEIMIN = 0.0010     energy-eigenvalue tresh-hold
   EBREAK =  0.10E-06  absolut break condition
   DEPER  =   0.30     relativ break condition  

   TIME   =   0.40     timestep for ELM

  volume/ion in A,a.u.               =       8.63        58.27
  Fermi-wavevector in a.u.,A,eV,Ry     =   1.341719  2.535480 24.493326  1.800209
  Thomas-Fermi vector in A             =   2.469930
 
 Write flags
   LWAVE        =      F    write WAVECAR
   LDOWNSAMPLE  =      F    k-point downsampling of WAVECAR
   LCHARG       =      F    write CHGCAR
   LVTOT        =      F    write LOCPOT, total local potential
   LVHAR        =      F    write LOCPOT, Hartree potential only
   LELF         =      F    write electronic localiz. function (ELF)
   LORBIT       =      0    0 simple, 1 ext, 2 COOP (PROOUT), +10 PAW based schemes


 Dipole corrections
   LMONO  =      F    monopole corrections only (constant potential shift)
   LDIPOL =      F    correct potential (dipole corrections)
   IDIPOL =      0    1-x, 2-y, 3-z, 4-all directions 
   EPSILON=  1.0000000 bulk dielectric constant

 Exchange correlation treatment:
   GGA     =    PE    GGA type
   LEXCH   =     8    internal setting for exchange type
   VOSKOWN=      0    Vosko Wilk Nusair interpolation
   LHFCALC =     F    Hartree Fock is set to
   LHFONE  =     F    Hartree Fock one center treatment
   AEXX    =    0.0000 exact exchange contribution

 Linear response parameters
   LEPSILON=     F    determine dielectric tensor
   LRPA    =     F    only Hartree local field effects (RPA)
   LNABLA  =     F    use nabla operator in PAW spheres
   LVEL    =     F    velocity operator in full k-point grid
   LINTERFAST=   F  fast interpolation
   KINTER  =     0    interpolate to denser k-point grid
   CSHIFT  =0.1000    complex shift for real part using Kramers Kronig
   OMEGAMAX=  -1.0    maximum frequency
   DEG_THRESHOLD= 0.2000000E-02 threshold for treating states as degnerate
   RTIME   =   -0.100 relaxation time in fs
  (WPLASMAI=    0.000 imaginary part of plasma frequency in eV, 0.658/RTIME)
   DFIELD  = 0.0000000 0.0000000 0.0000000 field for delta impulse in time
 
 Orbital magnetization related:
   ORBITALMAG=     F  switch on orbital magnetization
   LCHIMAG   =     F  perturbation theory with respect to B field
   DQ        =  0.001000  dq finite difference perturbation B field
   LLRAUG    =     F  two centre corrections for induced B field



--------------------------------------------------------------------------------------------------------


 quasi-Newton-method for relaxation of ions
 charge density and potential will be updated during run
 spin polarized calculation
 Variant of blocked Davidson
 Davidson routine will perform the subspace rotation
 perform sub-space diagonalisation
    after iterative eigenvector-optimisation
 modified Broyden-mixing scheme, WC =      100.0
 initial mixing is a Kerker type mixing with AMIX =  0.4000 and BMIX =      1.0000
 Hartree-type preconditioning will be used
 using additional bands           47
 reciprocal scheme for non local part
 use partial core corrections
 calculate Harris-corrections to forces 
   (improved forces if not selfconsistent)
 use gradient corrections 
 use of overlap-Matrix (Vanderbilt PP)
 Gauss-broadening in eV      SIGMA  =   0.05


--------------------------------------------------------------------------------------------------------


  energy-cutoff  :      500.00
  volume of cell :      699.36
      direct lattice vectors                 reciprocal lattice vectors
    10.355910301  0.000000000  0.000000000     0.096563216 -0.066889446 -0.045736898
     5.896951249  8.512980919  0.000000000     0.000000000  0.117467666 -0.045736898
     5.896951249  3.088725841  7.932881999     0.000000000  0.000000000  0.126057592

  length of vectors
    10.355910301 10.355910301 10.355910301     0.126057592  0.126057592  0.126057592


 
 k-points in units of 2pi/SCALE and weight: Al2O3                                   
   0.00000000  0.00000000  0.00000000       1.000
 
 k-points in reciprocal lattice and weights: Al2O3                                   
   0.00000000  0.00000000  0.00000000       1.000
 
 position of ions in fractional coordinates (direct lattice) 
   0.92692803  0.92792998  0.92085823
   0.91663827  0.93182988  0.43242289
   0.08075569  0.57433348  0.06486859
   0.07245748  0.57728802  0.57161856
   0.68239922  0.17588981  0.17321360
   0.57677345  0.08224157  0.57772468
   0.57037344  0.57234771  0.07111107
   0.57738936  0.56244538  0.57119263
   0.17488232  0.16990195  0.18210298
   0.18114459  0.17537675  0.68007802
   0.17658587  0.67246186  0.17430473
   0.16765184  0.68675982  0.67890121
   0.82493373  0.33097205  0.32582958
   0.57147736  0.07748716  0.07711808
   0.66666029  0.67767570  0.17635671
   0.67189133  0.68494231  0.66470208
   0.32860085  0.33068946  0.32108545
   0.31623798  0.33598838  0.82346842
   0.32311993  0.83379363  0.32025323
   0.33105571  0.82356297  0.81573601
   0.68279493  0.17588295  0.68471333
   0.83504563  0.31533262  0.82035180
   0.84166934  0.81804045  0.32020776
   0.82102879  0.82214609  0.82664971
   0.42426799  0.43040040  0.42287995
   0.42241151  0.41791901  0.93316016
   0.43035013  0.92645545  0.42557452
   0.42715956  0.92252160  0.91883393
   0.93435535  0.42102197  0.43461220
   0.92396455  0.42686989  0.92598077
   0.07975071  0.06475750  0.08018240
   0.07800656  0.07499460  0.57674955
   0.27638305  0.46268248  0.12985403
   0.26603729  0.47362806  0.62804395
   0.28436409  0.95907395  0.11818930
   0.27857143  0.97487534  0.62413153
   0.76326994  0.48425264  0.12085258
   0.77024419  0.47220228  0.62324503
   0.77101087  0.96933371  0.12866010
   0.76951989  0.96956540  0.63310269
   0.37609228  0.21540279  0.02510990
   0.37162438  0.22600173  0.53580802
   0.38044070  0.71608790  0.01908561
   0.36954038  0.72963601  0.52031737
   0.87546594  0.21957978  0.02295762
   0.88179308  0.21840144  0.53728495
   0.87438671  0.71546991  0.02637922
   0.87399664  0.72210824  0.52562691
   0.13093190  0.27269850  0.47316402
   0.12240240  0.27453217  0.98388530
   0.12267913  0.78840202  0.46510622
   0.12751408  0.77589371  0.96472128
   0.62428429  0.27351291  0.48057170
   0.61950146  0.27237026  0.98749126
   0.63451309  0.76971477  0.47022000
   0.62481406  0.78262225  0.97160806
   0.47455842  0.13335656  0.27227271
   0.46667787  0.12582864  0.78098503
   0.46981439  0.62462430  0.27514021
   0.45937461  0.62436959  0.77580054
   0.97067870  0.11982905  0.28373865
   0.98433858  0.11731625  0.78046071
   0.97869848  0.61913541  0.28009619
   0.96588852  0.62227904  0.77742206
   0.02816954  0.36682461  0.23144783
   0.03087633  0.37109431  0.72331358
   0.03564586  0.86897560  0.22473574
   0.01647043  0.88182992  0.71458031
   0.52768949  0.37578081  0.22555210
   0.52149541  0.36782042  0.72413912
   0.53517345  0.87694662  0.22233380
   0.52908434  0.87339940  0.71847676
   0.21835863  0.04081048  0.37295645
   0.21995678  0.02375881  0.87288335
   0.21622522  0.53158155  0.37460071
   0.21694393  0.53413314  0.87917471
   0.71407208  0.03402957  0.38081967
   0.73013790  0.03249656  0.86808068
   0.71739133  0.52783038  0.37508895
   0.71753388  0.53373536  0.86255278
   0.06596443  0.66320808  0.25645044
 
 position of ions in cartesian coordinates  (Angst):
  20.50139752 10.74372885  7.30505968
  17.53755581  9.26828579  3.43035979
   4.60564217  5.08965126  0.51459489
   7.52540925  6.68001490  4.53458255
   9.12551085  2.03235588  1.37408306
   9.86480285  2.48455406  4.58302169
   9.70118123  5.09202771  0.56411571
  12.66440048  6.55234424  4.53120370
   3.88682153  2.00883827  1.44460144
   6.92049227  3.59355351  5.39497872
   6.82204877  6.26303449  1.38273888
   9.78942389  7.94331292  5.38564316
  12.41606698  3.82395704  2.58476763
   6.82986778  0.89784330  0.61176860
  11.94006168  6.31375787  1.39901701
  14.91683351  7.88398326  5.27300313
   7.24644579  3.80689797  2.54713300
  10.11219235  5.40373087  6.53247779
  10.15155910  8.08724373  2.54053112
  13.09524940  9.53056074  6.47113748
  12.14585731  3.61217992  5.43175004
  15.34473326  5.21826237  6.50775399
  15.42844641  7.95299671  2.54017037
  18.22536892  9.55220827  6.55771458
   9.42543387  4.97015060  3.35465672
  12.34170369  6.44001242  7.40264944
  12.42952220  9.20138062  3.37603244
  15.28200996 10.69143493  7.28900117
  14.72173320  4.92654989  3.44772727
  17.54618833  6.49403596  7.34569614
   1.68059468  0.79894078  0.63607749
   4.65113245  2.41984884  4.57528610
   6.35635701  4.33989062  1.03011669
   9.25156439  5.97184221  4.98219853
   9.29741787  8.52963260  0.93758174
  12.31412633 10.22686636  4.95116181
  11.47263102  4.49571397  0.95870922
  14.43637914  5.94488200  4.94412930
  14.45933535  8.64931511  1.02064535
  17.41993453 10.20937236  5.02232890
   5.31306952  1.91127743  0.19919386
   8.34086371  3.57891252  4.25050181
   8.27509216  6.15499285  0.15140392
  11.19784110  7.81849510  4.12761630
  10.49647794  1.94018828  0.18212006
  13.58801588  3.51877322  4.26221812
  13.42971844  6.17225984  0.20926322
  16.40886420  7.77081112  4.16973623
   5.75423395  3.78295103  3.75355431
   8.68841472  5.37603904  7.80504595
   8.66233107  8.14823698  3.68963279
  11.58484608  9.58492789  7.65302009
  10.91183231  3.81276445  3.81231858
  13.84484359  5.36877263  7.83365165
  13.88279549  8.00494779  3.73019977
  16.81512899  9.66347918  7.70765212
   7.30646044  1.97623759  2.15990731
  10.18031016  3.48342546  6.19546209
  10.17122312  6.16724741  2.18265484
  13.01397727  7.71148155  6.15433414
  12.43208058  1.89649328  2.25086523
  15.48786903  3.40934018  6.19130269
  15.43803862  6.13582829  2.22196999
  18.25662399  7.69869317  6.16719744
   3.81970464  3.83764985  1.83604835
   6.77342246  5.39323611  5.73796128
   6.81870775  8.09171975  1.78280212
   9.58451956  9.71414394  5.66868129
   9.01073592  3.89568346  1.78927823
  11.83979185  5.36791545  5.74451019
  12.02461130  8.15215798  1.76374781
  14.86636607  9.65441014  5.69959137
   4.70126580  1.49937904  2.95861951
   7.56530773  2.89835564  6.92448061
   7.58292160  5.68238251  2.97166324
  10.58085935  7.26259488  6.97438925
   9.84121217  1.46594064  3.02099753
  12.87190273  2.95790582  6.88638164
  12.75371152  5.65195686  2.97553636
  15.66455966  7.20786805  6.84252945
   6.10630325  6.43798284  2.03439111
 


--------------------------------------------------------------------------------------------------------


 k-point  1 :   0.0000 0.0000 0.0000  plane waves:   17833

 maximum and minimum number of plane-waves per node :     17833    17833

 maximum number of plane-waves:     17833
 maximum index in each direction: 
   IXMAX=   18   IYMAX=   18   IZMAX=   18
   IXMIN=  -18   IYMIN=  -18   IZMIN=  -18


 serial   3D FFT for wavefunctions
 parallel 3D FFT for charge:
    minimum data exchange during FFTs selected (reduces bandwidth)


 total amount of memory used by VASP MPI-rank0   119711. kBytes
=======================================================================

   base      :      30000. kBytes
   nonl-proj :      26545. kBytes
   fftplans  :       8259. kBytes
   grid      :      36662. kBytes
   one-center:        497. kBytes
   wavefun   :      17748. kBytes
 
     INWAV:  cpu time    0.0000: real time    0.0001
 Broyden mixing: mesh for mixing (old mesh)
   NGX = 37   NGY = 37   NGZ = 37
  (NGX  =120   NGY  =120   NGZ  =120)
  gives a total of  50653 points

 initial charge density was supplied:
 charge density of overlapping atoms calculated
 number of electron     385.0000000 magnetization       1.0000000
 keeping initial charge density in first step


--------------------------------------------------------------------------------------------------------


 Maximum index for augmentation-charges         1519 (set IRDMAX)


--------------------------------------------------------------------------------------------------------


 First call to EWALD:  gamma=   0.200
 Maximum number of real-space cells 3x 3x 3
 Maximum number of reciprocal cells 3x 3x 3

    FEWALD:  cpu time    0.0040: real time    0.0044


--------------------------------------- Iteration      1(   1)  ---------------------------------------


    POTLOK:  cpu time    0.3499: real time    0.3521
    SETDIJ:  cpu time    0.0470: real time    0.0458
     EDDAV:  cpu time   10.5364: real time   10.5401
       DOS:  cpu time    0.0000: real time    0.0004
    --------------------------------------------
      LOOP:  cpu time   10.9333: real time   10.9384

 eigenvalue-minimisations  :   960
 total energy-change (2. order) : 0.2127824E+04  (-0.2010481E+05)
 number of electron     385.0000000 magnetization       1.0000000
 augmentation part      385.0000000 magnetization       1.0000000

 Free energy of the ion-electron system (eV)
  ---------------------------------------------------
  alpha Z        PSCENC =       593.57698122
  Ewald energy   TEWEN  =    -18968.46747783
  -Hartree energ DENC   =     -5162.27304546
  -exchange      EXHF   =         0.00000000
  -V(xc)+E(xc)   XCENC  =       532.79426217
  PAW double counting   =     18754.57418007   -17818.37357977
  entropy T*S    EENTRO =        -0.00838412
  eigenvalues    EBANDS =      1717.17658994
  atomic energy  EATOM  =     22478.82442253
  Solvation  Ediel_sol  =         0.00000000
  ---------------------------------------------------
  free energy    TOTEN  =      2127.82394875 eV

  energy without entropy =     2127.83233288  energy(sigma->0) =     2127.82814082


--------------------------------------------------------------------------------------------------------




--------------------------------------- Iteration      1(   2)  ---------------------------------------


     EDDAV:  cpu time   11.1563: real time   11.6031
       DOS:  cpu time    0.0000: real time    0.0002
    --------------------------------------------
      LOOP:  cpu time   11.1563: real time   11.6033

 eigenvalue-minimisations  :  1152
 total energy-change (2. order) :-0.2628073E+04  (-0.2564855E+04)
 number of electron     385.0000000 magnetization       1.0000000
 augmentation part      385.0000000 magnetization       1.0000000

 Free energy of the ion-electron system (eV)
  ---------------------------------------------------
  alpha Z        PSCENC =       593.57698122
  Ewald energy   TEWEN  =    -18968.46747783
  -Hartree energ DENC   =     -5162.27304546
  -exchange      EXHF   =         0.00000000
  -V(xc)+E(xc)   XCENC  =       532.79426217
  PAW double counting   =     18754.57418007   -17818.37357977
  entropy T*S    EENTRO =        -0.00000000
  eigenvalues    EBANDS =      -910.90469976
  atomic energy  EATOM  =     22478.82442253
  Solvation  Ediel_sol  =         0.00000000
  ---------------------------------------------------
  free energy    TOTEN  =      -500.24895683 eV

  energy without entropy =     -500.24895683  energy(sigma->0) =     -500.24895683


--------------------------------------------------------------------------------------------------------




--------------------------------------- Iteration      1(   3)  ---------------------------------------


     EDDAV:  cpu time   11.8922: real time   11.8921
       DOS:  cpu time    0.0000: real time    0.0003
    --------------------------------------------
      LOOP:  cpu time   11.8922: real time   11.8924

 eigenvalue-minimisations  :  1136
 total energy-change (2. order) :-0.1472257E+03  (-0.1465213E+03)
 number of electron     385.0000000 magnetization       1.0000000
 augmentation part      385.0000000 magnetization       1.0000000

 Free energy of the ion-electron system (eV)
  ---------------------------------------------------
  alpha Z        PSCENC =       593.57698122
  Ewald energy   TEWEN  =    -18968.46747783
  -Hartree energ DENC   =     -5162.27304546
  -exchange      EXHF   =         0.00000000
  -V(xc)+E(xc)   XCENC  =       532.79426217
  PAW double counting   =     18754.57418007   -17818.37357977
  entropy T*S    EENTRO =        -0.00000000
  eigenvalues    EBANDS =     -1058.13035868
  atomic energy  EATOM  =     22478.82442253
  Solvation  Ediel_sol  =         0.00000000
  ---------------------------------------------------
  free energy    TOTEN  =      -647.47461574 eV

  energy without entropy =     -647.47461574  energy(sigma->0) =     -647.47461574


--------------------------------------------------------------------------------------------------------




--------------------------------------- Iteration      1(   4)  ---------------------------------------


     EDDAV:  cpu time   12.1032: real time   12.1040
       DOS:  cpu time    0.0000: real time    0.0003
    --------------------------------------------
      LOOP:  cpu time   12.1032: real time   12.1043

 eigenvalue-minimisations  :  1120
 total energy-change (2. order) :-0.1822191E+01  (-0.1816383E+01)
 number of electron     385.0000000 magnetization       1.0000000
 augmentation part      385.0000000 magnetization       1.0000000

 Free energy of the ion-electron system (eV)
  ---------------------------------------------------
  alpha Z        PSCENC =       593.57698122
  Ewald energy   TEWEN  =    -18968.46747783
  -Hartree energ DENC   =     -5162.27304546
  -exchange      EXHF   =         0.00000000
  -V(xc)+E(xc)   XCENC  =       532.79426217
  PAW double counting   =     18754.57418007   -17818.37357977
  entropy T*S    EENTRO =        -0.00000000
  eigenvalues    EBANDS =     -1059.95255007
  atomic energy  EATOM  =     22478.82442253
  Solvation  Ediel_sol  =         0.00000000
  ---------------------------------------------------
  free energy    TOTEN  =      -649.29680714 eV

  energy without entropy =     -649.29680714  energy(sigma->0) =     -649.29680714


--------------------------------------------------------------------------------------------------------




--------------------------------------- Iteration      1(   5)  ---------------------------------------


     EDDAV:  cpu time   11.3543: real time   11.3543
       DOS:  cpu time    0.0000: real time    0.0002
    CHARGE:  cpu time    0.2670: real time    0.2666
    MIXING:  cpu time    0.0070: real time    0.0073
    --------------------------------------------
      LOOP:  cpu time   11.6282: real time   11.6285

 eigenvalue-minimisations  :  1120
 total energy-change (2. order) :-0.3334621E-01  (-0.3331195E-01)
 number of electron     384.9999981 magnetization       1.0000001
 augmentation part       37.6146640 magnetization       0.0401145

 Broyden mixing:
  rms(total) = 0.49873E+01    rms(broyden)= 0.49860E+01
  rms(prec ) = 0.69305E+01
  weight for this iteration     100.00

 Free energy of the ion-electron system (eV)
  ---------------------------------------------------
  alpha Z        PSCENC =       593.57698122
  Ewald energy   TEWEN  =    -18968.46747783
  -Hartree energ DENC   =     -5162.27304546
  -exchange      EXHF   =         0.00000000
  -V(xc)+E(xc)   XCENC  =       532.79426217
  PAW double counting   =     18754.57418007   -17818.37357977
  entropy T*S    EENTRO =        -0.00000000
  eigenvalues    EBANDS =     -1059.98589629
  atomic energy  EATOM  =     22478.82442253
  Solvation  Ediel_sol  =         0.00000000
  ---------------------------------------------------
  free energy    TOTEN  =      -649.33015335 eV

  energy without entropy =     -649.33015335  energy(sigma->0) =     -649.33015335


--------------------------------------------------------------------------------------------------------




--------------------------------------- Iteration      1(   6)  ---------------------------------------


    POTLOK:  cpu time    0.3449: real time    0.3462
    SETDIJ:  cpu time    0.0490: real time    0.0486
     EDDAV:  cpu time   11.4323: real time   11.4323
       DOS:  cpu time    0.0000: real time    0.0002
    CHARGE:  cpu time    0.2770: real time    0.2763
    MIXING:  cpu time    0.0070: real time    0.0070
    --------------------------------------------
      LOOP:  cpu time   12.1102: real time   12.1107

 eigenvalue-minimisations  :  1088
 total energy-change (2. order) : 0.6521584E+02  (-0.2888129E+02)
 number of electron     384.9999984 magnetization       1.0000001
 augmentation part       31.6367282 magnetization       0.0378277

 Broyden mixing:
  rms(total) = 0.17260E+01    rms(broyden)= 0.17245E+01
  rms(prec ) = 0.19699E+01
  weight for this iteration     100.00

 eigenvalues of (default mixing * dielectric matrix)
  average eigenvalue GAMMA=   0.9385
  0.9385

 Free energy of the ion-electron system (eV)
  ---------------------------------------------------
  alpha Z        PSCENC =       593.57698122
  Ewald energy   TEWEN  =    -18968.46747783
  -Hartree energ DENC   =     -5927.56354850
  -exchange      EXHF   =         0.00000000
  -V(xc)+E(xc)   XCENC  =       586.79147754
  PAW double counting   =     24021.39272930   -23100.91501220
  entropy T*S    EENTRO =        -0.00000000
  eigenvalues    EBANDS =      -267.75388101
  atomic energy  EATOM  =     22478.82442253
  Solvation  Ediel_sol  =         0.00000000
  ---------------------------------------------------
  free energy    TOTEN  =      -584.11430894 eV

  energy without entropy =     -584.11430894  energy(sigma->0) =     -584.11430894


--------------------------------------------------------------------------------------------------------




--------------------------------------- Iteration      1(   7)  ---------------------------------------


    POTLOK:  cpu time    0.3459: real time    0.3463
    SETDIJ:  cpu time    0.0450: real time    0.0454
     EDDAV:  cpu time   11.0533: real time   11.7889
       DOS:  cpu time    0.0000: real time    0.0002
    CHARGE:  cpu time    0.2480: real time    0.2477
    MIXING:  cpu time    0.0090: real time    0.0083
    --------------------------------------------
      LOOP:  cpu time   11.7012: real time   12.4368

 eigenvalue-minimisations  :  1080
 total energy-change (2. order) :-0.7019107E+00  (-0.7399809E+00)
 number of electron     384.9999984 magnetization       1.0000001
 augmentation part       31.3071075 magnetization      -0.0031978

 Broyden mixing:
  rms(total) = 0.94841E+00    rms(broyden)= 0.94826E+00
  rms(prec ) = 0.11061E+01
  weight for this iteration     100.00

 eigenvalues of (default mixing * dielectric matrix)
  average eigenvalue GAMMA=   1.2721
  1.2038  1.3405

 Free energy of the ion-electron system (eV)
  ---------------------------------------------------
  alpha Z        PSCENC =       593.57698122
  Ewald energy   TEWEN  =    -18968.46747783
  -Hartree energ DENC   =     -5986.78734293
  -exchange      EXHF   =         0.00000000
  -V(xc)+E(xc)   XCENC  =       591.74586861
  PAW double counting   =     28000.78752807   -27079.79931077
  entropy T*S    EENTRO =        -0.00000000
  eigenvalues    EBANDS =      -214.69688853
  atomic energy  EATOM  =     22478.82442253
  Solvation  Ediel_sol  =         0.00000000
  ---------------------------------------------------
  free energy    TOTEN  =      -584.81621962 eV

  energy without entropy =     -584.81621962  energy(sigma->0) =     -584.81621962


--------------------------------------------------------------------------------------------------------




--------------------------------------- Iteration      1(   8)  ---------------------------------------


    POTLOK:  cpu time    0.3499: real time    0.3502
    SETDIJ:  cpu time    0.0480: real time    0.0481
     EDDAV:  cpu time   13.2240: real time   13.6813
       DOS:  cpu time    0.0000: real time    0.0002
    CHARGE:  cpu time    0.2850: real time    0.2861
    MIXING:  cpu time    0.0080: real time    0.0067
    --------------------------------------------
      LOOP:  cpu time   13.9149: real time   14.3727

 eigenvalue-minimisations  :  1160
 total energy-change (2. order) :-0.3837947E-01  (-0.8570977E-01)
 number of electron     384.9999984 magnetization       1.0000001
 augmentation part       31.3925715 magnetization      -0.0099163

 Broyden mixing:
  rms(total) = 0.30696E+00    rms(broyden)= 0.30694E+00
  rms(prec ) = 0.37052E+00
  weight for this iteration     100.00

 eigenvalues of (default mixing * dielectric matrix)
  average eigenvalue GAMMA=   1.3108
  1.9959  1.0534  0.8832

 Free energy of the ion-electron system (eV)
  ---------------------------------------------------
  alpha Z        PSCENC =       593.57698122
  Ewald energy   TEWEN  =    -18968.46747783
  -Hartree energ DENC   =     -6008.60468896
  -exchange      EXHF   =         0.00000000
  -V(xc)+E(xc)   XCENC  =       594.61896023
  PAW double counting   =     31183.62814632   -30262.08089619
  entropy T*S    EENTRO =        -0.00000000
  eigenvalues    EBANDS =      -196.35004642
  atomic energy  EATOM  =     22478.82442253
  Solvation  Ediel_sol  =         0.00000000
  ---------------------------------------------------
  free energy    TOTEN  =      -584.85459909 eV

  energy without entropy =     -584.85459909  energy(sigma->0) =     -584.85459909


--------------------------------------------------------------------------------------------------------




--------------------------------------- Iteration      1(   9)  ---------------------------------------


    POTLOK:  cpu time    0.3369: real time    0.3382
    SETDIJ:  cpu time    0.0490: real time    0.0478
     EDDAV:  cpu time   11.6712: real time   11.6736
       DOS:  cpu time    0.0000: real time    0.0002
    CHARGE:  cpu time    0.2820: real time    0.2820
    MIXING:  cpu time    0.0100: real time    0.0092
    --------------------------------------------
      LOOP:  cpu time   12.3491: real time   12.3510

 eigenvalue-minimisations  :  1112
 total energy-change (2. order) :-0.7720886E-01  (-0.3184875E-01)
 number of electron     384.9999985 magnetization       1.0000001
 augmentation part       31.3522103 magnetization       0.0030128

 Broyden mixing:
  rms(total) = 0.12925E+00    rms(broyden)= 0.12924E+00
  rms(prec ) = 0.15163E+00
  weight for this iteration     100.00

 eigenvalues of (default mixing * dielectric matrix)
  average eigenvalue GAMMA=   1.3326
  2.3834  1.1182  1.1182  0.7105

 Free energy of the ion-electron system (eV)
  ---------------------------------------------------
  alpha Z        PSCENC =       593.57698122
  Ewald energy   TEWEN  =    -18968.46747783
  -Hartree energ DENC   =     -6032.33870072
  -exchange      EXHF   =         0.00000000
  -V(xc)+E(xc)   XCENC  =       597.01885112
  PAW double counting   =     32322.45806541   -31400.98097866
  entropy T*S    EENTRO =        -0.00000000
  eigenvalues    EBANDS =      -175.02297103
  atomic energy  EATOM  =     22478.82442253
  Solvation  Ediel_sol  =         0.00000000
  ---------------------------------------------------
  free energy    TOTEN  =      -584.93180795 eV

  energy without entropy =     -584.93180795  energy(sigma->0) =     -584.93180795


--------------------------------------------------------------------------------------------------------




--------------------------------------- Iteration      1(  10)  ---------------------------------------


    POTLOK:  cpu time    0.3319: real time    0.3329
    SETDIJ:  cpu time    0.0480: real time    0.0476
     EDDAV:  cpu time   11.2793: real time   11.2809
       DOS:  cpu time    0.0010: real time    0.0002
    CHARGE:  cpu time    0.2820: real time    0.2825
    MIXING:  cpu time    0.0090: real time    0.0085
    --------------------------------------------
      LOOP:  cpu time   11.9512: real time   11.9526

 eigenvalue-minimisations  :  1112
 total energy-change (2. order) :-0.2464454E-02  (-0.6632036E-02)
 number of electron     384.9999984 magnetization       1.0000001
 augmentation part       31.3285777 magnetization      -0.0027409

 Broyden mixing:
  rms(total) = 0.70611E-01    rms(broyden)= 0.70592E-01
  rms(prec ) = 0.76360E-01
  weight for this iteration     100.00

 eigenvalues of (default mixing * dielectric matrix)
  average eigenvalue GAMMA=   1.2368
  2.4656  1.3152  1.0372  0.6830  0.6830

 Free energy of the ion-electron system (eV)
  ---------------------------------------------------
  alpha Z        PSCENC =       593.57698122
  Ewald energy   TEWEN  =    -18968.46747783
  -Hartree energ DENC   =     -6037.37394181
  -exchange      EXHF   =         0.00000000
  -V(xc)+E(xc)   XCENC  =       597.50932730
  PAW double counting   =     32312.06042956   -31390.63939919
  entropy T*S    EENTRO =        -0.00000000
  eigenvalues    EBANDS =      -170.42461419
  atomic energy  EATOM  =     22478.82442253
  Solvation  Ediel_sol  =         0.00000000
  ---------------------------------------------------
  free energy    TOTEN  =      -584.93427241 eV

  energy without entropy =     -584.93427241  energy(sigma->0) =     -584.93427241


--------------------------------------------------------------------------------------------------------




--------------------------------------- Iteration      1(  11)  ---------------------------------------


    POTLOK:  cpu time    0.3509: real time    0.3772
    SETDIJ:  cpu time    0.0490: real time    0.0481
     EDDAV:  cpu time   11.9652: real time   11.9661
       DOS:  cpu time    0.0000: real time    0.0002
    CHARGE:  cpu time    0.2720: real time    0.2718
    MIXING:  cpu time    0.0100: real time    0.0096
    --------------------------------------------
      LOOP:  cpu time   12.6471: real time   12.6730

 eigenvalue-minimisations  :  1096
 total energy-change (2. order) :-0.5896846E-02  (-0.2259964E-02)
 number of electron     384.9999984 magnetization       1.0000001
 augmentation part       31.3247800 magnetization      -0.0041566

 Broyden mixing:
  rms(total) = 0.43716E-01    rms(broyden)= 0.43705E-01
  rms(prec ) = 0.49509E-01
  weight for this iteration     100.00

 eigenvalues of (default mixing * dielectric matrix)
  average eigenvalue GAMMA=   1.2660
  2.5447  1.6223  1.0479  0.8705  0.8705  0.6403

 Free energy of the ion-electron system (eV)
  ---------------------------------------------------
  alpha Z        PSCENC =       593.57698122
  Ewald energy   TEWEN  =    -18968.46747783
  -Hartree energ DENC   =     -6039.23492412
  -exchange      EXHF   =         0.00000000
  -V(xc)+E(xc)   XCENC  =       597.69704514
  PAW double counting   =     32220.73923598   -31299.32978466
  entropy T*S    EENTRO =        -0.00000000
  eigenvalues    EBANDS =      -168.74566751
  atomic energy  EATOM  =     22478.82442253
  Solvation  Ediel_sol  =         0.00000000
  ---------------------------------------------------
  free energy    TOTEN  =      -584.94016925 eV

  energy without entropy =     -584.94016925  energy(sigma->0) =     -584.94016925


--------------------------------------------------------------------------------------------------------




--------------------------------------- Iteration      1(  12)  ---------------------------------------


    POTLOK:  cpu time    0.3399: real time    0.3401
    SETDIJ:  cpu time    0.0470: real time    0.0467
     EDDAV:  cpu time   12.5711: real time   12.5712
       DOS:  cpu time    0.0000: real time    0.0002
    CHARGE:  cpu time    0.2730: real time    0.2726
    MIXING:  cpu time    0.0110: real time    0.0108
    --------------------------------------------
      LOOP:  cpu time   13.2420: real time   13.2417

 eigenvalue-minimisations  :  1264
 total energy-change (2. order) :-0.1602217E-03  (-0.6766562E-03)
 number of electron     384.9999984 magnetization       1.0000001
 augmentation part       31.3286955 magnetization      -0.0003894

 Broyden mixing:
  rms(total) = 0.23965E-01    rms(broyden)= 0.23955E-01
  rms(prec ) = 0.25682E-01
  weight for this iteration     100.00

 eigenvalues of (default mixing * dielectric matrix)
  average eigenvalue GAMMA=   1.2500
  2.6101  1.9891  1.0222  0.8777  0.8777  0.7149  0.6579

 Free energy of the ion-electron system (eV)
  ---------------------------------------------------
  alpha Z        PSCENC =       593.57698122
  Ewald energy   TEWEN  =    -18968.46747783
  -Hartree energ DENC   =     -6039.63732443
  -exchange      EXHF   =         0.00000000
  -V(xc)+E(xc)   XCENC  =       597.74478763
  PAW double counting   =     32139.48762537   -31218.07639093
  entropy T*S    EENTRO =        -0.00000000
  eigenvalues    EBANDS =      -168.39295304
  atomic energy  EATOM  =     22478.82442253
  Solvation  Ediel_sol  =         0.00000000
  ---------------------------------------------------
  free energy    TOTEN  =      -584.94032947 eV

  energy without entropy =     -584.94032947  energy(sigma->0) =     -584.94032947


--------------------------------------------------------------------------------------------------------




--------------------------------------- Iteration      1(  13)  ---------------------------------------


    POTLOK:  cpu time    0.3369: real time    0.3376
    SETDIJ:  cpu time    0.0460: real time    0.0453
     EDDAV:  cpu time   10.8733: real time   10.8742
       DOS:  cpu time    0.0010: real time    0.0002
    CHARGE:  cpu time    0.2550: real time    0.2552
    MIXING:  cpu time    0.0110: real time    0.0107
    --------------------------------------------
      LOOP:  cpu time   11.5232: real time   11.5233

 eigenvalue-minimisations  :  1024
 total energy-change (2. order) :-0.3969039E-03  (-0.1329655E-03)
 number of electron     384.9999984 magnetization       1.0000001
 augmentation part       31.3305352 magnetization      -0.0005762

 Broyden mixing:
  rms(total) = 0.11377E-01    rms(broyden)= 0.11376E-01
  rms(prec ) = 0.12404E-01
  weight for this iteration     100.00

 eigenvalues of (default mixing * dielectric matrix)
  average eigenvalue GAMMA=   1.2724
  2.7616  2.3906  0.9868  0.9868  0.7838  0.7838  0.8503  0.6356

 Free energy of the ion-electron system (eV)
  ---------------------------------------------------
  alpha Z        PSCENC =       593.57698122
  Ewald energy   TEWEN  =    -18968.46747783
  -Hartree energ DENC   =     -6039.67366566
  -exchange      EXHF   =         0.00000000
  -V(xc)+E(xc)   XCENC  =       597.75600404
  PAW double counting   =     32057.26257517   -31135.85317840
  entropy T*S    EENTRO =        -0.00000000
  eigenvalues    EBANDS =      -168.36638745
  atomic energy  EATOM  =     22478.82442253
  Solvation  Ediel_sol  =         0.00000000
  ---------------------------------------------------
  free energy    TOTEN  =      -584.94072638 eV

  energy without entropy =     -584.94072638  energy(sigma->0) =     -584.94072638


--------------------------------------------------------------------------------------------------------




--------------------------------------- Iteration      1(  14)  ---------------------------------------


    POTLOK:  cpu time    0.3160: real time    0.3166
    SETDIJ:  cpu time    0.0460: real time    0.0461
     EDDAV:  cpu time    8.8177: real time    8.9496
       DOS:  cpu time    0.0000: real time    0.0005
    CHARGE:  cpu time    0.2260: real time    0.2266
    MIXING:  cpu time    0.0300: real time    0.0294
    --------------------------------------------
      LOOP:  cpu time    9.4356: real time    9.5688

 eigenvalue-minimisations  :   824
 total energy-change (2. order) :-0.1773891E-03  (-0.5319017E-04)
 number of electron     384.9999984 magnetization       1.0000001
 augmentation part       31.3317528 magnetization      -0.0017065

 Broyden mixing:
  rms(total) = 0.24367E-02    rms(broyden)= 0.24309E-02
  rms(prec ) = 0.28882E-02
  weight for this iteration     100.00

 eigenvalues of (default mixing * dielectric matrix)
  average eigenvalue GAMMA=   1.2465
  2.7672  2.4196  1.0597  1.0597  1.0251  0.7831  0.7831  0.6955  0.6254

 Free energy of the ion-electron system (eV)
  ---------------------------------------------------
  alpha Z        PSCENC =       593.57698122
  Ewald energy   TEWEN  =    -18968.46747783
  -Hartree energ DENC   =     -6039.59399044
  -exchange      EXHF   =         0.00000000
  -V(xc)+E(xc)   XCENC  =       597.75233935
  PAW double counting   =     31991.11519141   -31069.70568035
  entropy T*S    EENTRO =        -0.00000000
  eigenvalues    EBANDS =      -168.44268966
  atomic energy  EATOM  =     22478.82442253
  Solvation  Ediel_sol  =         0.00000000
  ---------------------------------------------------
  free energy    TOTEN  =      -584.94090377 eV

  energy without entropy =     -584.94090377  energy(sigma->0) =     -584.94090377


--------------------------------------------------------------------------------------------------------




--------------------------------------- Iteration      1(  15)  ---------------------------------------


    POTLOK:  cpu time    0.4199: real time    0.4210
    SETDIJ:  cpu time    0.0700: real time    0.0692
     EDDAV:  cpu time    8.7567: real time    8.7591
       DOS:  cpu time    0.0000: real time    0.0002
    --------------------------------------------
      LOOP:  cpu time    9.2466: real time    9.2496

 eigenvalue-minimisations  :   624
 total energy-change (2. order) :-0.7973682E-05  (-0.4827845E-05)
 number of electron     384.9999984 magnetization       1.0000001
 augmentation part       31.3317528 magnetization      -0.0017065

 Free energy of the ion-electron system (eV)
  ---------------------------------------------------
  alpha Z        PSCENC =       593.57698122
  Ewald energy   TEWEN  =    -18968.46747783
  -Hartree energ DENC   =     -6039.60286814
  -exchange      EXHF   =         0.00000000
  -V(xc)+E(xc)   XCENC  =       597.75159319
  PAW double counting   =     31989.62457667   -31068.21424400
  entropy T*S    EENTRO =        -0.00000000
  eigenvalues    EBANDS =      -168.43389538
  atomic energy  EATOM  =     22478.82442253
  Solvation  Ediel_sol  =         0.00000000
  ---------------------------------------------------
  free energy    TOTEN  =      -584.94091174 eV

  energy without entropy =     -584.94091174  energy(sigma->0) =     -584.94091174


--------------------------------------------------------------------------------------------------------




 average (electrostatic) potential at core
  the test charge radii are     1.0406  0.7215  0.5201
  (the norm of the test charge is              1.0000)
       1 -72.0472       2 -71.7562       3 -72.1972       4 -71.8411       5 -71.6510
       6 -71.3181       7 -71.7009       8 -71.9765       9 -71.8011      10 -71.5654
      11 -72.7309      12 -72.1727      13 -72.0782      14 -71.6716      15 -71.6851
      16 -71.5456      17 -71.8192      18 -71.8526      19 -71.9040      20 -71.7003
      21 -71.7540      22 -72.0827      23 -72.3560      24 -71.6646      25 -71.8370
      26 -72.1244      27 -72.0034      28 -71.5630      29 -72.1324      30 -71.9684
      31 -71.9433      32 -71.7630      33 -67.6882      34 -67.1991      35 -67.2677
      36 -67.3561      37 -67.1948      38 -67.4667      39 -67.1413      40 -67.2270
      41 -67.3044      42 -66.9598      43 -67.3644      44 -67.3360      45 -67.4196
      46 -67.3128      47 -67.1700      48 -67.5300      49 -67.2770      50 -67.2695
      51 -66.9402      52 -67.5013      53 -67.0292      54 -67.2733      55 -67.1422
      56 -67.0002      57 -66.9322      58 -66.5341      59 -67.1679      60 -66.9480
      61 -67.2907      62 -67.5627      63 -69.5080      64 -67.2685      65 -67.2511
      66 -67.3438      67 -67.5750      68 -67.5745      69 -67.4347      70 -67.6600
      71 -67.3437      72 -67.2321      73 -67.3437      74 -67.2203      75 -67.5411
      76 -67.8831      77 -67.0442      78 -67.4061      79 -67.4064      80 -66.8259
      81 -39.7757
 
 
 
 E-fermi :  11.2373     XC(G=0): -11.5575     alpha+bet :-16.4104


 spin component 1

 k-point     1 :       0.0000    0.0000    0.0000
  band No.  band energies     occupation 
      1     -14.8637      1.00000
      2     -13.1316      1.00000
      3     -12.4438      1.00000
      4     -12.3531      1.00000
      5     -12.2618      1.00000
      6     -12.1864      1.00000
      7     -12.1364      1.00000
      8     -12.0940      1.00000
      9     -12.0758      1.00000
     10     -12.0433      1.00000
     11     -11.9766      1.00000
     12     -11.9404      1.00000
     13     -11.7971      1.00000
     14     -11.5702      1.00000
     15     -11.4939      1.00000
     16     -11.3606      1.00000
     17     -11.2951      1.00000
     18     -11.2589      1.00000
     19     -11.1987      1.00000
     20     -11.1391      1.00000
     21     -11.0905      1.00000
     22     -11.0636      1.00000
     23     -11.0046      1.00000
     24     -10.9676      1.00000
     25     -10.8801      1.00000
     26     -10.8460      1.00000
     27     -10.8204      1.00000
     28     -10.7724      1.00000
     29     -10.7287      1.00000
     30     -10.7214      1.00000
     31     -10.6698      1.00000
     32     -10.6585      1.00000
     33     -10.6114      1.00000
     34     -10.5917      1.00000
     35     -10.5739      1.00000
     36     -10.5495      1.00000
     37     -10.5204      1.00000
     38     -10.4973      1.00000
     39     -10.4577      1.00000
     40     -10.4292      1.00000
     41     -10.3742      1.00000
     42     -10.3521      1.00000
     43     -10.2956      1.00000
     44     -10.2488      1.00000
     45     -10.2195      1.00000
     46     -10.1813      1.00000
     47     -10.1104      1.00000
     48      -9.9237      1.00000
     49      -3.5156      1.00000
     50      -0.9066      1.00000
     51      -0.8152      1.00000
     52      -0.6255      1.00000
     53      -0.5497      1.00000
     54      -0.5073      1.00000
     55      -0.4071      1.00000
     56      -0.2540      1.00000
     57      -0.2151      1.00000
     58      -0.1829      1.00000
     59      -0.0329      1.00000
     60      -0.0105      1.00000
     61       0.1602      1.00000
     62       0.2099      1.00000
     63       0.2711      1.00000
     64       0.3109      1.00000
     65       0.3578      1.00000
     66       0.4208      1.00000
     67       0.5452      1.00000
     68       0.6194      1.00000
     69       0.6733      1.00000
     70       0.7199      1.00000
     71       0.8161      1.00000
     72       0.8349      1.00000
     73       1.0135      1.00000
     74       1.0400      1.00000
     75       1.1619      1.00000
     76       1.1966      1.00000
     77       1.2751      1.00000
     78       1.3138      1.00000
     79       1.3367      1.00000
     80       1.3823      1.00000
     81       1.4163      1.00000
     82       1.4823      1.00000
     83       1.5165      1.00000
     84       1.5656      1.00000
     85       1.6755      1.00000
     86       1.6916      1.00000
     87       1.7221      1.00000
     88       1.7559      1.00000
     89       1.7882      1.00000
     90       1.8225      1.00000
     91       1.8574      1.00000
     92       1.9157      1.00000
     93       1.9971      1.00000
     94       2.0530      1.00000
     95       2.1247      1.00000
     96       2.1554      1.00000
     97       2.2219      1.00000
     98       2.2501      1.00000
     99       2.2802      1.00000
    100       2.3436      1.00000
    101       2.3578      1.00000
    102       2.4083      1.00000
    103       2.4316      1.00000
    104       2.4637      1.00000
    105       2.4897      1.00000
    106       2.5219      1.00000
    107       2.5349      1.00000
    108       2.6071      1.00000
    109       2.6339      1.00000
    110       2.6821      1.00000
    111       2.7082      1.00000
    112       2.7685      1.00000
    113       2.8897      1.00000
    114       3.0482      1.00000
    115       3.2296      1.00000
    116       3.3154      1.00000
    117       3.3470      1.00000
    118       3.4404      1.00000
    119       3.5128      1.00000
    120       3.5432      1.00000
    121       3.5942      1.00000
    122       3.6033      1.00000
    123       3.6596      1.00000
    124       3.6848      1.00000
    125       3.7539      1.00000
    126       3.7651      1.00000
    127       3.7803      1.00000
    128       3.8163      1.00000
    129       3.8746      1.00000
    130       3.9035      1.00000
    131       3.9508      1.00000
    132       4.0165      1.00000
    133       4.0475      1.00000
    134       4.0717      1.00000
    135       4.1198      1.00000
    136       4.1666      1.00000
    137       4.1944      1.00000
    138       4.2257      1.00000
    139       4.2830      1.00000
    140       4.3201      1.00000
    141       4.3426      1.00000
    142       4.3808      1.00000
    143       4.4063      1.00000
    144       4.4212      1.00000
    145       4.4378      1.00000
    146       4.4890      1.00000
    147       4.4967      1.00000
    148       4.5306      1.00000
    149       4.5577      1.00000
    150       4.5877      1.00000
    151       4.6047      1.00000
    152       4.6319      1.00000
    153       4.6436      1.00000
    154       4.6643      1.00000
    155       4.6783      1.00000
    156       4.6868      1.00000
    157       4.7172      1.00000
    158       4.7307      1.00000
    159       4.7993      1.00000
    160       4.8276      1.00000
    161       4.8424      1.00000
    162       4.8856      1.00000
    163       4.9187      1.00000
    164       4.9361      1.00000
    165       4.9753      1.00000
    166       4.9871      1.00000
    167       5.0350      1.00000
    168       5.0462      1.00000
    169       5.0967      1.00000
    170       5.1060      1.00000
    171       5.1526      1.00000
    172       5.1852      1.00000
    173       5.2150      1.00000
    174       5.2824      1.00000
    175       5.3603      1.00000
    176       5.3919      1.00000
    177       5.4342      1.00000
    178       5.4783      1.00000
    179       5.5065      1.00000
    180       5.5545      1.00000
    181       5.5995      1.00000
    182       5.6168      1.00000
    183       5.6303      1.00000
    184       5.6646      1.00000
    185       5.7070      1.00000
    186       5.7361      1.00000
    187       5.7744      1.00000
    188       5.8298      1.00000
    189       5.8671      1.00000
    190       5.9580      1.00000
    191       5.9932      1.00000
    192       6.0762      1.00000
    193      10.9090      1.00000
    194      11.9233      0.00000
    195      13.9392      0.00000
    196      14.0225      0.00000
    197      14.4381      0.00000
    198      14.5606      0.00000
    199      14.6415      0.00000
    200      14.6679      0.00000
    201      14.7089      0.00000
    202      14.7948      0.00000
    203      14.8227      0.00000
    204      14.9093      0.00000
    205      14.9243      0.00000
    206      14.9672      0.00000
    207      15.0274      0.00000
    208      15.0954      0.00000
    209      15.1138      0.00000
    210      15.1618      0.00000
    211      15.2025      0.00000
    212      15.2633      0.00000
    213      15.3205      0.00000
    214      15.3893      0.00000
    215      15.4119      0.00000
    216      15.5192      0.00000
    217      15.5911      0.00000
    218      15.6951      0.00000
    219      15.8390      0.00000
    220      15.8964      0.00000
    221      16.0318      0.00000
    222      16.1806      0.00000
    223      16.3374      0.00000
    224      16.3858      0.00000
    225      16.4734      0.00000
    226      16.5463      0.00000
    227      16.6026      0.00000
    228      16.6824      0.00000
    229      16.7277      0.00000
    230      16.8117      0.00000
    231      16.8426      0.00000
    232      16.8976      0.00000
    233      16.9838      0.00000
    234      17.0262      0.00000
    235      17.0795      0.00000
    236      17.1623      0.00000
    237      17.2023      0.00000
    238      17.2465      0.00000
    239      17.3111      0.00000
    240      17.3698      0.00000

 spin component 2

 k-point     1 :       0.0000    0.0000    0.0000
  band No.  band energies     occupation 
      1     -14.4192      1.00000
      2     -13.1093      1.00000
      3     -12.4356      1.00000
      4     -12.3390      1.00000
      5     -12.2527      1.00000
      6     -12.1727      1.00000
      7     -12.1297      1.00000
      8     -12.0887      1.00000
      9     -12.0644      1.00000
     10     -12.0350      1.00000
     11     -11.9675      1.00000
     12     -11.9351      1.00000
     13     -11.7720      1.00000
     14     -11.5410      1.00000
     15     -11.4843      1.00000
     16     -11.3547      1.00000
     17     -11.2865      1.00000
     18     -11.2524      1.00000
     19     -11.1916      1.00000
     20     -11.1323      1.00000
     21     -11.0813      1.00000
     22     -11.0519      1.00000
     23     -10.9949      1.00000
     24     -10.9525      1.00000
     25     -10.8682      1.00000
     26     -10.8417      1.00000
     27     -10.8035      1.00000
     28     -10.7669      1.00000
     29     -10.7213      1.00000
     30     -10.7129      1.00000
     31     -10.6653      1.00000
     32     -10.6533      1.00000
     33     -10.6060      1.00000
     34     -10.5870      1.00000
     35     -10.5674      1.00000
     36     -10.5432      1.00000
     37     -10.5112      1.00000
     38     -10.4928      1.00000
[...]
   -.127E+02 0.364E+01 -.133E+02   0.141E+02 -.275E+01 0.126E+02   -.292E+01 -.258E+01 0.158E+01   -.149E-02 0.728E-03 0.624E-03
   -.127E+02 -.679E+01 -.156E+01   0.139E+02 0.665E+01 0.284E+01   -.823E+00 -.366E+00 -.146E+01   -.138E-02 0.197E-02 -.451E-03
   0.123E+02 -.147E+01 0.479E+01   -.153E+02 -.147E+01 -.286E+01   0.175E+01 0.275E+01 -.838E+00   0.502E-03 -.224E-02 -.223E-02
   0.145E+02 0.763E+01 0.528E+01   -.153E+02 -.838E+01 -.523E+01   0.390E+00 0.440E+00 0.149E+00   -.160E-03 -.123E-02 0.178E-02
   -.627E+01 -.138E+01 -.160E+02   0.474E+01 0.854E+01 0.216E+02   0.270E+01 -.784E+01 -.695E+01   0.662E-03 0.476E-02 -.444E-02
   -.145E+02 0.282E+02 0.161E+01   0.146E+02 -.283E+02 -.185E+01   0.548E+00 -.364E+00 0.339E+00   0.755E-03 -.248E-02 0.943E-03
   -.136E+02 0.114E+02 -.553E+01   0.138E+02 -.116E+02 0.567E+01   -.984E-01 0.833E-01 -.917E+00   0.289E-02 -.225E-02 -.469E-02
   -.125E+02 0.234E+02 -.173E+01   0.123E+02 -.233E+02 0.251E+01   0.782E+00 0.636E-01 -.620E+00   0.381E-02 -.108E-02 0.510E-02
   -.162E+02 0.318E+02 -.773E+00   0.173E+02 -.332E+02 0.344E+01   -.104E+01 0.152E+01 -.277E+01   -.336E-02 0.608E-02 -.262E-02
   -.149E+02 0.217E+02 -.973E+01   0.131E+02 -.223E+02 0.105E+02   0.212E+01 0.118E+01 -.816E+00   -.444E-02 0.343E-02 0.181E-02
   -.220E+02 0.222E+02 0.282E+01   0.224E+02 -.236E+02 -.466E+01   -.105E+01 0.247E+01 0.189E+01   -.300E-02 0.110E-02 -.101E-02
   -.127E+02 0.208E+02 0.326E+01   0.135E+02 -.216E+02 -.279E+01   -.112E+01 0.137E+01 -.464E+00   -.338E-02 0.413E-02 0.523E-02
   -.155E+01 0.168E+02 -.249E+02   0.112E+01 -.178E+02 0.249E+02   0.648E+00 0.796E+00 0.106E+00   -.165E-02 -.726E-02 -.319E-02
   -.308E+01 0.177E+02 -.237E+02   0.275E+01 -.163E+02 0.229E+02   0.813E+00 -.244E+01 0.128E+01   0.417E-02 -.391E-02 0.625E-02
   -.203E+02 -.248E+02 -.248E+02   0.152E+04 0.931E+03 -.948E+03   -.178E+03 -.108E+03 0.116E+03   -.311E-02 0.374E-02 -.125E-01
   0.235E+01 0.169E+02 -.244E+02   -.176E+01 -.166E+02 0.249E+02   -.175E+00 -.482E+00 -.329E+00   0.140E-02 0.975E-03 -.116E-02
   0.345E+01 0.177E+02 -.299E+02   -.333E+01 -.207E+02 0.310E+02   -.641E+00 0.370E+01 -.962E+00   -.109E-02 0.570E-03 -.430E-03
   0.810E+01 0.264E+02 -.233E+02   -.848E+01 -.278E+02 0.244E+02   0.131E+00 0.105E+01 -.136E+01   -.294E-02 -.368E-02 0.439E-02
   0.160E+01 0.152E+02 -.159E+02   -.145E+01 -.151E+02 0.166E+02   -.144E+01 0.436E+00 -.783E+00   -.472E-02 0.322E-02 -.215E-02
   -.960E+01 0.186E+02 -.197E+02   0.122E+02 -.179E+02 0.218E+02   -.386E+01 -.109E+01 -.193E+01   -.169E-02 0.488E-02 0.394E-02
   -.355E+01 -.199E+02 0.271E+02   0.536E+01 0.208E+02 -.286E+02   -.223E+01 -.127E+01 0.196E+01   -.587E-03 -.423E-02 0.477E-02
   0.207E+01 -.192E+02 0.256E+02   -.266E+01 0.213E+02 -.258E+02   0.567E+00 -.239E+01 -.424E+00   0.715E-03 -.350E-02 -.131E-02
   0.536E+01 -.113E+02 0.279E+02   -.570E+01 0.110E+02 -.308E+02   0.535E+00 0.226E+00 0.356E+01   0.175E-02 0.283E-02 0.420E-03
   -.210E+00 -.178E+02 -.149E+02   0.459E+01 0.176E+02 0.220E+02   -.489E+01 0.239E+00 -.773E+01   0.104E-01 -.663E-04 -.380E-02
   0.636E+01 -.122E+02 0.234E+02   -.643E+01 0.141E+02 -.248E+02   -.715E+00 -.225E+01 0.204E+01   -.146E-02 -.418E-02 0.621E-02
   -.356E+01 -.944E+01 0.174E+02   0.549E+01 0.102E+02 -.179E+02   -.157E+01 -.118E+01 0.643E+00   0.664E-04 -.439E-02 0.326E-03
   0.240E+01 -.207E+02 0.202E+02   -.456E+01 0.180E+02 -.226E+02   0.236E+01 0.304E+01 0.311E+01   -.112E-02 0.979E-03 0.417E-02
   -.145E+02 -.156E+02 0.229E+02   0.160E+02 0.166E+02 -.216E+02   -.184E+01 -.138E+01 -.148E+01   0.171E-02 0.278E-02 -.364E-02
   0.895E+01 -.851E+01 -.155E+02   -.105E+02 0.955E+01 0.151E+02   0.208E+01 -.173E+01 0.835E-01   0.153E-02 -.327E-02 -.110E-03
   0.447E+01 -.167E+02 -.211E+02   -.264E+01 0.194E+02 0.232E+02   -.150E+01 -.300E+01 -.264E+01   0.132E-02 -.526E-02 -.630E-04
   0.146E+02 -.508E+01 -.320E+02   -.173E+02 0.394E+01 0.327E+02   0.318E+01 0.944E+00 -.985E+00   0.301E-02 -.227E-03 -.573E-02
   0.122E+02 -.763E+01 -.154E+02   -.161E+02 0.830E+01 0.151E+02   0.554E+01 -.214E+00 0.197E+00   0.357E-02 0.983E-02 0.799E-03
   0.146E+02 -.105E+02 -.241E+02   -.163E+02 0.968E+01 0.238E+02   0.206E+01 0.155E+01 0.493E+00   -.130E-02 -.130E-02 0.189E-02
   0.111E+02 -.103E+02 -.315E+02   -.956E+01 0.102E+02 0.336E+02   -.164E+01 0.689E+00 -.238E+01   0.843E-03 -.288E-02 0.139E-03
   -.375E+02 -.243E+02 0.310E+02   0.283E+02 0.178E+02 -.503E+02   0.118E+02 0.112E+02 0.210E+02   0.319E-02 0.534E-02 -.276E-02
   0.147E+02 -.644E+01 -.278E+02   -.138E+02 0.574E+01 0.287E+02   -.125E+01 0.728E+00 -.567E+00   -.268E-02 0.291E-02 0.278E-02
   -.119E+02 0.256E+02 0.339E+02   0.136E+02 -.260E+02 -.341E+02   -.212E+01 -.209E+00 -.224E-01   -.349E-02 -.644E-03 0.803E-03
   -.165E+02 0.602E+01 0.232E+02   0.173E+02 -.596E+01 -.250E+02   -.757E+00 0.270E+00 0.204E+01   0.147E-02 -.161E-02 0.283E-02
   0.146E+01 0.543E+02 0.247E+02   0.933E+00 -.691E+02 -.261E+02   -.319E+01 0.154E+02 0.210E+01   0.101E-02 -.561E-03 -.221E-02
   -.146E+02 0.100E+02 0.225E+02   0.138E+02 -.862E+01 -.232E+02   0.940E+00 -.158E+01 0.831E+00   -.315E-02 0.214E-02 0.286E-03
   -.174E+02 0.208E+02 0.172E+02   0.181E+02 -.192E+02 -.182E+02   -.177E+00 -.308E+01 0.136E+01   0.537E-02 -.995E-03 0.134E-02
   -.930E+01 0.194E+02 0.224E+02   0.784E+01 -.194E+02 -.219E+02   0.172E+01 -.100E+01 -.543E+00   -.206E-02 -.473E-02 -.462E-03
   -.127E+02 0.866E+01 0.301E+02   0.131E+02 -.940E+01 -.299E+02   -.501E+00 0.634E+00 -.588E+00   -.760E-03 -.163E-02 -.387E-02
   -.197E+02 0.102E+02 0.436E+02   0.195E+02 -.993E+01 -.475E+02   0.596E+00 -.585E+00 0.391E+01   -.191E-03 -.158E-02 0.211E-02
   0.190E+02 -.262E+02 0.480E+01   -.179E+02 0.268E+02 -.463E+01   -.147E+01 -.688E+00 -.344E+00   -.657E-03 -.430E-03 0.165E-03
   0.239E+02 -.409E+02 0.275E+00   -.281E+02 0.411E+02 0.839E+00   0.501E+01 0.249E+00 -.187E+01   -.222E-03 -.187E-02 -.519E-02
   0.410E+02 -.483E+02 0.268E+02   -.480E+02 0.545E+02 -.381E+02   0.788E+01 -.645E+01 0.120E+02   0.242E-02 0.208E-02 -.699E-03
   0.177E+02 -.292E+02 -.104E+02   -.159E+02 0.307E+02 0.104E+02   -.223E+01 -.154E+01 0.623E+00   0.143E-02 0.167E-02 -.748E-03
   0.115E+02 -.290E+02 0.113E+01   -.109E+02 0.309E+02 -.386E-01   -.849E+00 -.155E+01 -.177E+00   0.223E-03 0.365E-02 0.376E-02
   0.226E+02 -.272E+02 0.312E+01   -.230E+02 0.279E+02 -.437E+01   -.845E+00 -.771E+00 0.729E+00   -.667E-02 -.272E-02 -.413E-02
   0.272E+02 -.262E+02 -.381E+01   -.240E+02 0.284E+02 0.366E+01   -.392E+01 -.195E+01 0.687E+00   -.265E-02 0.171E-02 0.425E-03
   0.182E+00 -.172E+02 0.283E+01   -.212E+00 0.166E+02 -.274E+01   0.345E+00 0.893E+00 -.206E+00   0.166E-03 0.728E-02 -.198E-02
   -.301E+02 -.187E+02 -.220E+02   0.343E+02 0.137E+02 0.249E+02   -.286E+01 -.155E+01 -.325E+01   -.126E-02 -.607E-03 -.120E-02
 -----------------------------------------------------------------------------------------------
   0.273E+03 0.171E+03 -.198E+03   -.234E-12 0.515E-13 0.178E-13   -.273E+03 -.171E+03 0.198E+03   -.486E-02 0.117E-01 -.954E-02
 
 
 POSITION                                       TOTAL-FORCE (eV/Angst)
 -----------------------------------------------------------------------------------
     20.49027     10.74228      7.34806         1.249126     -0.712525     -0.055750
     17.55538      9.25189      3.43494         0.568507     -0.833889     -2.243477
      4.53729      5.10496      0.58741         2.456486      0.005573     -0.977839
      7.53920      6.68728      4.55740         0.471555     -1.296656     -1.538152
      9.09152      2.03387      1.42758         0.463869      0.327337     -0.664899
      9.80278      2.48084      4.59763        -0.306197     -0.418662     -1.038138
      9.72968      5.09080      0.53373         9.519348     -6.222600      2.855612
     12.65472      6.62589      4.55997        -0.337931     -0.198516     -0.811302
      3.88327      2.04891      1.40337         0.316382      0.382699      0.341340
      6.91756      3.58605      5.35949        -0.944236      0.308912      0.298443
      7.98919      6.01014      0.34857     -1327.072287   -797.383944    867.222875
      9.77052      7.89238      5.33105         0.412375     -0.254721      0.324895
     12.37084      3.79207      2.58360         0.249601     -0.115911     -0.530315
      6.83669      0.87420      0.60465        -0.333397     -0.118342     -0.024733
     11.96729      6.31120      1.38097         0.806489     -0.147010      0.809860
     14.92509      7.84014      5.31863         0.081319     -0.645050     -0.091364
      7.22404      3.74120      2.59432        -0.651390      2.761945     -0.953521
     10.07040      5.30496      6.53732         0.503523      1.032769      0.185125
     10.11911      8.03879      2.55549        -0.022824      0.119369      0.743449
     13.06101      9.52241      6.49561        -6.587288      2.497993     -7.312616
     12.06621      3.58833      5.37457         0.387128      0.552507      0.423916
     15.30722      5.29183      6.52509         0.137034     -0.756890      0.255734
     15.32582      8.07610      2.56312         0.221471      4.601051     -2.910304
     18.20650      9.54509      6.55590         1.402758     -0.021728     -0.173452
      9.45470      4.95838      3.40542        -1.225696      1.037660     -0.615639
     12.39182      6.45354      7.37391        -1.443955      0.426765      0.428847
     12.45612      9.20948      3.36468        -1.209292     -0.394316     -0.057856
     15.32649     10.71450      7.28593         2.056799      4.188937     -1.263233
     14.66218      4.87085      3.44660        -1.499620     -1.687415      0.904266
     17.53442      6.48617      7.36124         0.391832     -0.505764     -0.182642
      1.66429      0.82593      0.59433        -1.251589     -0.196091      1.083754
      4.65048      2.40300      4.55771        -0.416229     -0.308848      0.206676
      6.35532      4.38414      1.01625         1.173593     -0.668331     -1.318809
      9.30326      5.99023      4.97295         0.647579     -0.501799      0.104278
      9.32390      8.58708      0.99219         0.120637     -0.074952     -0.782771
     12.31097     10.18574      4.92693         0.530678      0.084614      0.160291
     11.52865      4.40496      0.97480         0.016044      0.215975     -0.103804
     14.48629      5.90309      4.97452         0.281371      0.627503     -0.085933
     14.54268      8.60537      1.01210        -0.585444      1.027290      0.044009
     17.45279     10.19925      5.00635        -0.324429      0.563137      0.008184
      5.32955      1.94363      0.21940         0.216897     -0.125738      0.100903
      8.34438      3.56747      4.20886         0.482770     -1.059954      0.495671
      8.25197      6.16875      0.17759      1317.717767    798.385205   -856.806049
     11.22828      7.79680      4.16141         0.425087     -0.210033      0.133244
     10.54778      1.94631      0.20171        -0.516658      0.672373      0.149867
     13.53439      3.54797      4.24794        -0.246993     -0.368165     -0.282630
     13.47322      6.18681      0.21411        -1.300073      0.549226     -0.101589
     16.42560      7.76222      4.15996        -1.271058     -0.392729      0.163408
      5.77807      3.82924      3.75130        -0.415589     -0.405705      0.524839
      8.65717      5.39267      7.76757        -0.017293     -0.329599     -0.538401
      8.65129      8.13342      3.72643         0.203946     -0.106843      0.624515
     11.57465      9.59439      7.69064        -0.504125      0.056376     -0.699559
     10.95329      3.85564      3.75614        -0.789731     -0.354386      0.579350
     13.84312      5.38552      7.71583         0.355553     -0.457031      0.152712
     13.85641      8.04231      3.70444         0.199185      0.318002      0.687470
     16.76844      9.67452      7.70436        -0.395574     -0.433438     -0.095262
      7.27466      1.94939      2.22901         0.515255     -0.685096     -0.318685
     10.17662      3.48000      6.20808         0.339314     -0.284414     -0.569956
     10.17502      6.22072      2.19703         0.433752     -0.191881     -0.247734
     13.04437      7.68813      6.14184         1.609478      0.468440     -0.135463
     12.44472      1.93531      2.23166         0.373519      0.702670      0.190464
     15.44108      3.42748      6.18965        -0.127971      0.597469     -0.302832
     15.09155      6.04797      2.27301         2.584978      4.730092      1.666963
     18.29556      7.73602      6.15685        -0.429663      0.029785      0.317137
      3.82435      3.88598      1.79520        -0.437483     -0.576843     -0.155079
      6.75650      5.41475      5.72963         0.024610      0.325073      0.193316
      6.78777      8.16737      1.75793        -0.795796      0.588437      0.691858
      9.65083      9.71118      5.68901         0.157456     -0.184834      0.096905
      8.99865      3.89022      1.77877         0.509425     -1.483751      0.364792
     11.89141      5.43845      5.73952         0.253944     -0.984543     -0.115208
     11.96188      8.14804      1.77386        -0.083395     -0.106291     -0.412049
     14.86718      9.68173      5.69584         0.412021     -0.307045      0.058712
      4.71320      1.42621      2.95846        -0.296894     -0.105077     -0.165765
      7.60828      2.90012      6.97664         0.778687      0.397166     -0.760803
      7.62158      5.64114      2.97919         0.848910     -0.269168      0.715744
     10.55107      7.19199      6.89480        -0.449590     -0.000786      0.609753
      9.86675      1.42084      2.98299        -0.274234      0.344621      0.919759
     12.87809      2.96542      6.97647        -1.244503     -0.010052     -0.523764
     12.75170      5.63515      2.95324        -0.725179      0.169661      0.534863
     15.68778      7.18968      6.89195         0.314789      0.339601     -0.113768
      5.30613      6.71876      2.93597         1.310760     -6.538878     -0.292655
 -----------------------------------------------------------------------------------
    total drift:                               -0.009036     -0.005315      0.005274


--------------------------------------------------------------------------------------------------------



  FREE ENERGIE OF THE ION-ELECTRON SYSTEM (eV)
  ---------------------------------------------------
  free  energy   TOTEN  =      -245.83301518 eV

  energy  without entropy=     -245.83301518  energy(sigma->0) =     -245.83301518
 
 d Force =-0.1098991E+04[-0.229E+04, 0.929E+02]  d Energy =-0.3391079E+03-0.760E+03
 d Force =-0.1270129E+04[-0.274E+04, 0.200E+03]  d Ewald  =-0.4908269E+03-0.779E+03


--------------------------------------------------------------------------------------------------------


    POTLOK:  cpu time    0.3719: real time    0.4425


--------------------------------------------------------------------------------------------------------


 stress matrix after NEB project (eV)
    371.04792    199.17207   -217.14971
    199.17207    155.42956   -152.77712
   -217.14971   -152.77712    169.94257
  FORCES: max atom, RMS  1774.547132  277.942142
  FORCE total and by dimension 2501.479282 1327.072287
  Stress total and by dimension  641.127210  371.047916
 Quasi-Newton relaxation of ions (Broydens 2nd method)
  g(Force)  = 0.302E+06   g(Stress)= 0.000E+00

 retain information from N=  1 steps
 eigenvalues of (default step * inverse Hessian matrix)
  average eigenvalue of G=   0.0095
 eigenvalue spectrum of G is  0.0095


--------------------------------------------------------------------------------------------------------


    WAVPRE:  cpu time    0.1180: real time    0.1341
    FEWALD:  cpu time    0.0030: real time    0.0133
    ORTHCH:  cpu time    1.3678: real time    1.4044
     LOOP+:  cpu time  348.8750: real time  349.9892


--------------------------------------- Iteration      3(   1)  ---------------------------------------


    POTLOK:  cpu time    0.3629: real time    0.4046
    SETDIJ:  cpu time    0.0510: real time    0.0496
     EDDAV:  cpu time   11.5053: real time   12.0255
       DOS:  cpu time    0.0000: real time    0.0004
    CHARGE:  cpu time    0.2770: real time    0.2771
    MIXING:  cpu time    0.0120: real time    0.0116
    --------------------------------------------
      LOOP:  cpu time   12.2081: real time   12.7688

 eigenvalue-minimisations  :  1048
 total energy-change (2. order) :-0.3409046E+03  (-0.3261724E+03)
 number of electron     385.0000010 magnetization       0.5355611
 augmentation part       31.2714860 magnetization       0.3764238

 Broyden mixing:
  rms(total) = 0.41006E+03    rms(broyden)= 0.41006E+03
  rms(prec ) = 0.41007E+03
  weight for this iteration     100.00

 Free energy of the ion-electron system (eV)
  ---------------------------------------------------
  alpha Z        PSCENC =       593.57698122
  Ewald energy   TEWEN  =    -18945.06954715
  -Hartree energ DENC   =     -6075.65889432
  -exchange      EXHF   =         0.00000000
  -V(xc)+E(xc)   XCENC  =       602.38331525
  PAW double counting   = 138406484.26277635******************
  entropy T*S    EENTRO =        -0.02772823
  eigenvalues    EBANDS =      -146.74257051
  atomic energy  EATOM  =     22478.82442253
  Solvation  Ediel_sol  =         0.00000000
  ---------------------------------------------------
  free energy    TOTEN  =      -586.73756009 eV

  energy without entropy =     -586.70983187  energy(sigma->0) =     -586.72369598


--------------------------------------------------------------------------------------------------------




--------------------------------------- Iteration      3(   2)  ---------------------------------------


    POTLOK:  cpu time    0.3579: real time    0.3584
    SETDIJ:  cpu time    0.0490: real time    0.0485
     EDDAV:  cpu time   10.7214: real time   10.7219
       DOS:  cpu time    0.0000: real time    0.0003
    CHARGE:  cpu time    0.2540: real time    0.2546
    MIXING:  cpu time    0.0400: real time    0.0396
    --------------------------------------------
      LOOP:  cpu time   11.4223: real time   11.4233

 eigenvalue-minimisations  :   992
 total energy-change (2. order) :-0.4821832E+01  (-0.2536180E+02)
 number of electron     385.0000007 magnetization       0.5784545
 augmentation part       31.4940010 magnetization       0.0091020

 Broyden mixing:
  rms(total) = 0.24673E+03    rms(broyden)= 0.24673E+03
  rms(prec ) = 0.24673E+03
  weight for this iteration     100.00

 eigenvalues of (default mixing * dielectric matrix)
  average eigenvalue GAMMA=   2.4964
  2.4964

 Free energy of the ion-electron system (eV)
  ---------------------------------------------------
  alpha Z        PSCENC =       593.57698122
  Ewald energy   TEWEN  =    -18945.06954715
  -Hartree energ DENC   =     -6036.28124383
  -exchange      EXHF   =         0.00000000
  -V(xc)+E(xc)   XCENC  =       597.71135760
  PAW double counting   =  50033781.13683971-50032867.91360275
  entropy T*S    EENTRO =        -0.02074513
  eigenvalues    EBANDS =      -193.52385425
  atomic energy  EATOM  =     22478.82442253
  Solvation  Ediel_sol  =         0.00000000
  ---------------------------------------------------
  free energy    TOTEN  =      -591.55939205 eV

  energy without entropy =     -591.53864692  energy(sigma->0) =     -591.54901949


--------------------------------------------------------------------------------------------------------




--------------------------------------- Iteration      3(   3)  ---------------------------------------


    POTLOK:  cpu time    0.4029: real time    0.4030
    SETDIJ:  cpu time    0.0480: real time    0.0475
Error EDDDAV: Call to ZHEGV failed. Returncode =   7 1   8
