 vasp.5.4.4.18Apr17-6-g9f103f2a35 (build Apr 18 2019 12:40:38) complex          
  
 executed on             LinuxIFC date 2022.01.22  08:45:59
 running on    8 total cores
 distrk:  each k-point on    8 cores,    1 groups
 distr:  one band on NCORES_PER_BAND=   1 cores,    8 groups


--------------------------------------------------------------------------------------------------------


 INCAR:
 POTCAR:    PAW_PBE Al 04Jan2001                  
 POTCAR:    PAW_PBE O 08Apr2002                   
 POTCAR:    PAW_PBE H 15Jun2001                   

 ----------------------------------------------------------------------------- 
|                                                                             |
|           W    W    AA    RRRRR   N    N  II  N    N   GGGG   !!!           |
|           W    W   A  A   R    R  NN   N  II  NN   N  G    G  !!!           |
|           W    W  A    A  R    R  N N  N  II  N N  N  G       !!!           |
|           W WW W  AAAAAA  RRRRR   N  N N  II  N  N N  G  GGG   !            |
|           WW  WW  A    A  R   R   N   NN  II  N   NN  G    G                |
|           W    W  A    A  R    R  N    N  II  N    N   GGGG   !!!           |
|                                                                             |
|      For optimal performance we recommend to set                            |
|        NCORE= 4 - approx SQRT( number of cores)                             |
|      NCORE specifies how many cores store one orbital (NPAR=cpu/NCORE).     |
|      This setting can  greatly improve the performance of VASP for DFT.     |
|      The default,   NCORE=1            might be grossly inefficient         |
|      on modern multi-core architectures or massively parallel machines.     |
|      Do your own testing !!!!                                               |
|      Unfortunately you need to use the default for GW and RPA calculations. |
|      (for HF NCORE is supported but not extensively tested yet)             |
|                                                                             |
 ----------------------------------------------------------------------------- 

 POTCAR:    PAW_PBE Al 04Jan2001                  
   VRHFIN =Al: s2p1                                                             
   LEXCH  = PE                                                                  
   EATOM  =    53.5387 eV,    3.9350 Ry                                         
                                                                                
   TITEL  = PAW_PBE Al 04Jan2001                                                
   LULTRA =        F    use ultrasoft PP ?                                      
   IUNSCR =        1    unscreen: 0-lin 1-nonlin 2-no                           
   RPACOR =    1.500    partial core radius                                     
   POMASS =   26.981; ZVAL   =    3.000    mass and valenz                      
   RCORE  =    1.900    outmost cutoff radius                                   
   RWIGS  =    2.650; RWIGS  =    1.402    wigner-seitz radius (au A)           
   ENMAX  =  240.300; ENMIN  =  180.225 eV                                      
   ICORE  =        2    local potential                                         
   LCOR   =        T    correct aug charges                                     
   LPAW   =        T    paw PP                                                  
   EAUG   =  291.052                                                            
   DEXC   =    0.000                                                            
   RMAX   =    1.939    core radius for proj-oper                               
   RAUG   =    1.300    factor for augmentation sphere                          
   RDEP   =    1.966    radius for radial grids                                 
   RDEPT  =    1.856    core radius for aug-charge                              
                                                                                
   Atomic configuration                                                         
    6 entries                                                                   
     n  l   j            E        occ.                                          
     1  0  0.50     -1511.1048   2.0000                                         
     2  0  0.50      -108.1629   2.0000                                         
     2  1  1.50       -69.6402   6.0000                                         
     3  0  0.50        -7.7528   2.0000                                         
     3  1  1.50        -2.7121   1.0000                                         
     3  2  2.50        -2.7212   0.0000                                         
   Description                                                                  
     l       E           TYP  RCUT    TYP  RCUT                                 
     0     -7.7528455     23  1.900                                             
     0     -3.3096929     23  1.900                                             
     1     -2.7120682     23  1.900                                             
     1     13.6058260     23  1.900                                             
     2     -2.7211652      7  1.900                                             
  local pseudopotential read in
  partial core-charges read in
  partial kinetic energy density read in
  atomic valenz-charges read in
  non local Contribution for L=           0  read in
    real space projection operators read in
  non local Contribution for L=           0  read in
    real space projection operators read in
  non local Contribution for L=           1  read in
    real space projection operators read in
  non local Contribution for L=           1  read in
    real space projection operators read in
    PAW grid and wavefunctions read in
 
   number of l-projection  operators is LMAX  =           4
   number of lm-projection operators is LMMAX =           8
 
 POTCAR:    PAW_PBE O 08Apr2002                   
   VRHFIN =O: s2p4                                                              
   LEXCH  = PE                                                                  
   EATOM  =   432.3788 eV,   31.7789 Ry                                         
                                                                                
   TITEL  = PAW_PBE O 08Apr2002                                                 
   LULTRA =        F    use ultrasoft PP ?                                      
   IUNSCR =        1    unscreen: 0-lin 1-nonlin 2-no                           
   RPACOR =    1.200    partial core radius                                     
   POMASS =   16.000; ZVAL   =    6.000    mass and valenz                      
   RCORE  =    1.520    outmost cutoff radius                                   
   RWIGS  =    1.550; RWIGS  =    0.820    wigner-seitz radius (au A)           
   ENMAX  =  400.000; ENMIN  =  300.000 eV                                      
   ICORE  =        2    local potential                                         
   LCOR   =        T    correct aug charges                                     
   LPAW   =        T    paw PP                                                  
   EAUG   =  605.392                                                            
   DEXC   =    0.000                                                            
   RMAX   =    1.553    core radius for proj-oper                               
   RAUG   =    1.300    factor for augmentation sphere                          
   RDEP   =    1.550    radius for radial grids                                 
   RDEPT  =    1.329    core radius for aug-charge                              
                                                                                
   Atomic configuration                                                         
    4 entries                                                                   
     n  l   j            E        occ.                                          
     1  0  0.50      -514.6923   2.0000                                         
     2  0  0.50       -23.9615   2.0000                                         
     2  1  0.50        -9.0305   4.0000                                         
     3  2  1.50        -9.5241   0.0000                                         
   Description                                                                  
     l       E           TYP  RCUT    TYP  RCUT                                 
     0    -23.9615318     23  1.200                                             
     0     -9.5240782     23  1.200                                             
     1     -9.0304911     23  1.520                                             
     1      8.1634956     23  1.520                                             
     2     -9.5240782      7  1.500                                             
  local pseudopotential read in
  partial core-charges read in
  partial kinetic energy density read in
  kinetic energy density of atom read in
  atomic valenz-charges read in
  non local Contribution for L=           0  read in
    real space projection operators read in
  non local Contribution for L=           0  read in
    real space projection operators read in
  non local Contribution for L=           1  read in
    real space projection operators read in
  non local Contribution for L=           1  read in
    real space projection operators read in
    PAW grid and wavefunctions read in
 
   number of l-projection  operators is LMAX  =           4
   number of lm-projection operators is LMMAX =           8
 
 POTCAR:    PAW_PBE H 15Jun2001                   
   VRHFIN =H: ultrasoft test                                                    
   LEXCH  = PE                                                                  
   EATOM  =    12.4884 eV,    0.9179 Ry                                         
                                                                                
   TITEL  = PAW_PBE H 15Jun2001                                                 
   LULTRA =        F    use ultrasoft PP ?                                      
   IUNSCR =        0    unscreen: 0-lin 1-nonlin 2-no                           
   RPACOR =    0.000    partial core radius                                     
   POMASS =    1.000; ZVAL   =    1.000    mass and valenz                      
   RCORE  =    1.100    outmost cutoff radius                                   
   RWIGS  =    0.700; RWIGS  =    0.370    wigner-seitz radius (au A)           
   ENMAX  =  250.000; ENMIN  =  200.000 eV                                      
   RCLOC  =    0.701    cutoff for local pot                                    
   LCOR   =        T    correct aug charges                                     
   LPAW   =        T    paw PP                                                  
   EAUG   =  400.000                                                            
   RMAX   =    1.123    core radius for proj-oper                               
   RAUG   =    1.200    factor for augmentation sphere                          
   RDEP   =    1.112    radius for radial grids                                 
   RDEPT  =    0.926    core radius for aug-charge                              
                                                                                
   Atomic configuration                                                         
    2 entries                                                                   
     n  l   j            E        occ.                                          
     1  0  0.50        -6.4927   1.0000                                         
     2  1  0.50        -3.4015   0.0000                                         
   Description                                                                  
     l       E           TYP  RCUT    TYP  RCUT                                 
     0     -6.4927494     23  1.100                                             
     0      6.8029130     23  1.100                                             
     1     -4.0817478     23  1.100                                             
  local pseudopotential read in
  atomic valenz-charges read in
  non local Contribution for L=           0  read in
    real space projection operators read in
  non local Contribution for L=           0  read in
    real space projection operators read in
  non local Contribution for L=           1  read in
    real space projection operators read in
    PAW grid and wavefunctions read in
 
   number of l-projection  operators is LMAX  =           3
   number of lm-projection operators is LMMAX =           5
 

 ----------------------------------------------------------------------------- 
|                                                                             |
|  ADVICE TO THIS USER RUNNING 'VASP/VAMP'   (HEAR YOUR MASTER'S VOICE ...):  |
|                                                                             |
|      You have a (more or less) 'large supercell' and for larger cells       |
|      it might be more efficient to use real space projection opertators     |
|      So try LREAL= Auto  in the INCAR   file.                               |
|      Mind:          For very  accurate calculation you might also keep the  |
|      reciprocal projection scheme          (i.e. LREAL=.FALSE.)             |
|                                                                             |
 ----------------------------------------------------------------------------- 

  PAW_PBE Al 04Jan2001                  :
 energy of atom  1       EATOM=  -53.5387
 kinetic energy error for atom=    0.0003 (will be added to EATOM!!)
  PAW_PBE O 08Apr2002                   :
 energy of atom  2       EATOM= -432.3788
 kinetic energy error for atom=    0.0224 (will be added to EATOM!!)
  PAW_PBE H 15Jun2001                   :
 energy of atom  3       EATOM=  -12.4884
 kinetic energy error for atom=    0.0020 (will be added to EATOM!!)
 
 
 POSCAR: Al4 O6                                  
  positions in direct lattice
  No initial velocities read in
 exchange correlation table for  LEXCH =        8
   RHO(1)=    0.500       N(1)  =     2000
   RHO(2)=  100.500       N(2)  =     4000

 VTST: version 3.2, (02/03/18)

 CHAIN: initializing optimizer
 
 OPT: Using VASP QUASI-newton optimizer
 CHAIN: Read ICHAIN            0
 
 POSCAR: Al4 O6                                  
  positions in direct lattice
  No initial velocities read in
 


--------------------------------------------------------------------------------------------------------


 ion  position               nearest neighbor table
   1  0.927  0.928  0.921-  62 1.85  52 1.88  78 1.93  39 1.93  68 2.01  47 2.07  24 2.68  32 2.77
                             3 2.83  14 2.85  22 3.18  23 3.29  20 3.30
   2  0.917  0.932  0.432-  61 1.82  40 1.85  51 1.87  77 1.98  48 2.02  67 2.06  23 2.64   6 2.73
                            31 2.82   4 2.83  24 3.21  13 3.28  19 3.32
   3  0.081  0.574  0.065-  76 1.74  47 1.90  52 1.94  33 1.97  65 1.98  63 2.06  11 2.65  26 2.74
                             1 2.83  29 2.95  12 3.15   9 3.30
   4  0.072  0.577  0.572-  75 1.86  48 1.87  66 1.92  34 1.92  64 1.96  51 2.04  12 2.73  25 2.82
                             2 2.83  30 2.84  11 3.26  10 3.26  16 3.28
   5  0.682  0.176  0.173-  45 1.82  77 1.88  54 1.90  69 1.91  57 1.98  39 2.01  14 2.67  22 2.82
                            17 2.84  23 2.87   7 3.22  31 3.25   6 3.32
   6  0.577  0.082  0.578-  53 1.86  77 1.86  40 1.89  42 1.91  58 1.92  72 1.96  21 2.68   2 2.73
                            28 2.77  25 2.81  10 3.25  16 3.30   5 3.32
   7  0.570  0.572  0.071-  43 1.83  69 1.85  37 1.91  80 1.92  59 2.00  56 2.07  15 2.68  28 2.80
                            25 2.81  30 2.82  11 3.21   5 3.22  16 3.31
   8  0.577  0.562  0.571-  81 1.07  79 1.80  70 1.89  38 1.92  44 1.98  60 2.02  55 2.06  16 2.72
                            29 2.84  26 2.89  27 2.90  21 3.12  15 3.22  12 3.31  13 3.36
   9  0.175  0.170  0.182-  73 1.79  65 1.87  41 1.90  50 1.94  61 1.99  35 2.11  31 2.64  19 2.70
                            13 2.82  18 2.88  32 3.25  14 3.25   3 3.30
  10  0.181  0.175  0.680-  74 1.80  42 1.82  66 1.84  62 1.97  36 2.00  49 2.02  32 2.68  22 2.76
                            20 2.81  17 2.87   6 3.25  31 3.25   4 3.26
  11  0.177  0.672  0.174-  75 1.85  67 1.87  43 1.91  63 1.94  33 2.01  52 2.03   3 2.65  23 2.69
                            17 2.75  20 2.87   7 3.21  31 3.23   4 3.26
  12  0.168  0.687  0.679-  68 1.80  44 1.89  76 1.90  51 2.05  64 2.06  34 2.08   4 2.73  24 2.77
                            18 2.81  19 2.87   3 3.15  32 3.19   8 3.31
  13  0.825  0.331  0.326-  79 1.90  65 1.91  53 1.94  61 1.96  37 2.00  46 2.07  29 2.70  15 2.80
                             9 2.82  21 2.87   2 3.28  30 3.29  25 3.29   8 3.36
  14  0.571  0.077  0.077-  71 1.85  41 1.87  54 1.91  39 1.94  57 1.95  78 1.96   5 2.67  26 2.73
                            27 2.79   1 2.85  21 3.19   9 3.25  15 3.29
  15  0.667  0.678  0.176-  71 1.88  79 1.89  47 1.91  37 1.93  56 1.94  59 1.94   7 2.68  19 2.77
                            13 2.80  24 2.81   8 3.22  14 3.29
  16  0.672  0.685  0.665-  72 1.82  48 1.86  55 1.86  80 1.87  38 2.02  60 2.10   8 2.72  20 2.73
                            23 2.78  22 2.97   4 3.28   6 3.30   7 3.31
  17  0.329  0.331  0.321-  33 1.84  57 1.87  49 1.92  69 1.92  75 1.95  42 2.04  25 2.60  11 2.75
                             5 2.84  10 2.87  26 3.21  29 3.22  27 3.30
  18  0.316  0.336  0.823-  34 1.86  70 1.90  50 1.91  58 1.95  76 1.97  41 1.98  26 2.61  12 2.81
                             9 2.88  21 2.93  30 3.22  25 3.28
  19  0.323  0.834  0.320-  35 1.87  51 1.88  44 1.92  59 1.95  73 2.02  71 2.03  27 2.67   9 2.70
                            15 2.77  12 2.87  25 3.30  28 3.31   2 3.32
  20  0.331  0.824  0.816-  36 1.85  60 1.85  52 1.92  72 1.94  43 1.96  74 1.97  28 2.61  16 2.73
                            10 2.81  11 2.87  27 3.18   1 3.30  26 3.31
  21  0.683  0.176  0.685-  78 1.75  70 1.81  46 1.86  53 2.05  40 2.06  58 2.11   6 2.68  24 2.81
                            13 2.87  18 2.93   8 3.12  14 3.19  32 3.22
  22  0.835  0.315  0.820-  62 1.84  45 1.93  38 1.95  66 1.95  54 2.01  80 2.04  30 2.68  10 2.76
                             5 2.82  16 2.97  29 3.14   1 3.18  26 3.36
  23  0.842  0.818  0.320-  63 1.84  67 1.91  48 1.91  39 1.93  55 1.95  77 2.11   2 2.64  11 2.69
                            16 2.78   5 2.87  29 3.24   1 3.29  27 3.35
  24  0.821  0.822  0.827-  56 1.82  40 1.85  64 1.89  68 1.94  47 1.95  78 2.02   1 2.68  12 2.77
                            15 2.81  21 2.81   2 3.21  30 3.23  28 3.24
  25  0.424  0.430  0.423-  59 1.83  34 1.92  53 1.94  69 1.94  42 1.98  75 2.01  17 2.60   7 2.81
                             6 2.81   4 2.82  18 3.28  13 3.29  19 3.30
  26  0.422  0.418  0.933-  33 1.85  54 1.90  60 1.90  41 1.97  76 1.99  70 2.04  18 2.61  14 2.73
                             3 2.74   8 2.89  17 3.21  20 3.31  22 3.36
  27  0.430  0.926  0.426-  36 1.88  55 1.92  57 1.93  71 1.97  44 2.00  73 2.05  19 2.67  14 2.79
                            32 2.82   8 2.90  20 3.18  17 3.30  23 3.35
  28  0.427  0.923  0.919-  35 1.84  58 1.88  56 1.89  72 1.94  43 1.99  74 1.99  20 2.61   6 2.77
                            31 2.80   7 2.80  24 3.24  19 3.31
  29  0.934  0.421  0.435-  49 1.82  38 1.83  63 1.86  46 1.98  65 2.02  79 2.15  13 2.70  32 2.76
                             8 2.84   3 2.95  22 3.14  17 3.22  23 3.24
  30  0.924  0.427  0.926-  64 1.83  37 1.90  50 1.92  66 1.99  45 2.02  80 2.07  22 2.68   7 2.82
                             4 2.84  31 2.91  18 3.22  24 3.23  13 3.29
  31  0.080  0.065  0.080-  67 1.84  35 1.91  74 1.92  45 1.97  61 1.99  50 2.01   9 2.64  28 2.80
                             2 2.82  30 2.91  11 3.23   5 3.25  10 3.25
  32  0.078  0.075  0.577-  46 1.82  73 1.86  68 1.90  49 1.94  36 1.94  62 1.95  10 2.68  29 2.76
                             1 2.77  27 2.82  12 3.19  21 3.22   9 3.25
  33  0.276  0.463  0.130-  17 1.84  26 1.85   3 1.97  11 2.01
  34  0.266  0.474  0.628-  18 1.86   4 1.92  25 1.92  12 2.08
  35  0.284  0.959  0.118-  28 1.84  19 1.87  31 1.91   9 2.11
  36  0.279  0.975  0.624-  20 1.85  27 1.88  32 1.94  10 2.00
  37  0.763  0.484  0.121-  30 1.90   7 1.91  15 1.93  13 2.00
  38  0.770  0.472  0.623-  29 1.83   8 1.92  22 1.95  16 2.02
  39  0.771  0.969  0.129-   1 1.93  23 1.93  14 1.94   5 2.01
  40  0.770  0.970  0.633-   2 1.85  24 1.85   6 1.89  21 2.06
  41  0.376  0.215  0.025-  14 1.87   9 1.90  26 1.97  18 1.98
  42  0.372  0.226  0.536-  10 1.82   6 1.91  25 1.98  17 2.04
  43  0.380  0.716  0.019-   7 1.83  11 1.91  20 1.96  28 1.99
  44  0.370  0.730  0.520-  12 1.89  19 1.92   8 1.98  27 2.00
  45  0.875  0.220  0.023-   5 1.82  22 1.93  31 1.97  30 2.02
  46  0.882  0.218  0.537-  32 1.82  21 1.86  29 1.98  13 2.07
  47  0.874  0.715  0.026-   3 1.90  15 1.91  24 1.95   1 2.07
  48  0.874  0.722  0.526-  16 1.86   4 1.87  23 1.91   2 2.02
  49  0.131  0.273  0.473-  29 1.82  17 1.92  32 1.94  10 2.02
  50  0.122  0.275  0.984-  18 1.91  30 1.92   9 1.94  31 2.01
  51  0.123  0.788  0.465-   2 1.87  19 1.88   4 2.04  12 2.05
  52  0.128  0.776  0.965-   1 1.88  20 1.92   3 1.94  11 2.03
  53  0.624  0.274  0.481-   6 1.86  25 1.94  13 1.94  21 2.05
  54  0.620  0.272  0.987-  26 1.90   5 1.90  14 1.91  22 2.01
  55  0.635  0.770  0.470-  16 1.86  27 1.92  23 1.95   8 2.06
  56  0.625  0.783  0.972-  24 1.82  28 1.89  15 1.94   7 2.07
  57  0.475  0.133  0.272-  17 1.87  27 1.93  14 1.95   5 1.98
  58  0.467  0.126  0.781-  28 1.88   6 1.92  18 1.95  21 2.11
  59  0.470  0.625  0.275-  25 1.83  15 1.94  19 1.95   7 2.00
  60  0.459  0.624  0.776-  20 1.85  26 1.90   8 2.02  16 2.10
  61  0.971  0.120  0.284-   2 1.82  13 1.96   9 1.99  31 1.99
  62  0.984  0.117  0.780-  22 1.84   1 1.85  32 1.95  10 1.97
  63  0.979  0.619  0.280-  23 1.84  29 1.86  11 1.94   3 2.06
  64  0.966  0.622  0.777-  30 1.83  24 1.89   4 1.96  12 2.06
  65  0.028  0.367  0.231-   9 1.87  13 1.91   3 1.98  29 2.02
  66  0.031  0.371  0.723-  10 1.84   4 1.92  22 1.95  30 1.99
  67  0.036  0.869  0.225-  31 1.84  11 1.87  23 1.91   2 2.06
  68  0.016  0.882  0.715-  12 1.80  32 1.90  24 1.94   1 2.01
  69  0.528  0.376  0.226-   7 1.85   5 1.91  17 1.92  25 1.94
  70  0.521  0.368  0.724-  81 1.34  21 1.81   8 1.89  18 1.90  26 2.04
  71  0.535  0.877  0.222-  14 1.85  15 1.88  27 1.97  19 2.03
  72  0.529  0.873  0.718-  16 1.82  20 1.94  28 1.94   6 1.96
  73  0.218  0.041  0.373-   9 1.79  32 1.86  19 2.02  27 2.05
  74  0.220  0.024  0.873-  10 1.80  31 1.92  20 1.97  28 1.99
  75  0.216  0.532  0.375-  11 1.85   4 1.86  17 1.95  25 2.01
  76  0.217  0.534  0.879-   3 1.74  12 1.90  18 1.97  26 1.99
  77  0.714  0.034  0.381-   6 1.86   5 1.88   2 1.98  23 2.11
  78  0.730  0.032  0.868-  21 1.75   1 1.93  14 1.96  24 2.02
  79  0.717  0.528  0.375-   8 1.80  15 1.89  13 1.90  29 2.15
  80  0.718  0.534  0.863-  16 1.87   7 1.92  22 2.04  30 2.07
  81  0.623  0.447  0.664-   8 1.07  70 1.34
 
  LATTYP: Found a trigonal (rhomboedric) cell.
 ALAT       =    10.3559103012
 COS(alpha) =     0.5694285754
  
  Lattice vectors:
  
 A1 = (  10.3559103012,   0.0000000000,   0.0000000000)
 A2 = (   5.8969512495,   8.5129809190,   0.0000000000)
 A3 = (   5.8969512495,   3.0887258413,   7.9328819987)


Analysis of symmetry for initial positions (statically):
=====================================================================
 Subroutine PRICEL returns:
 Original cell was already a primitive cell.
 

 Routine SETGRP: Setting up the symmetry group for a 
 trigonal (rhombohedral) supercell.


 Subroutine GETGRP returns: Found  1 space group operations
 (whereof  1 operations were pure point group operations)
 out of a pool of 12 trial point group operations.


The static configuration has the point symmetry C_1 .


Analysis of symmetry for dynamics (positions and initial velocities):
=====================================================================
 Subroutine PRICEL returns:
 Original cell was already a primitive cell.
 

 Routine SETGRP: Setting up the symmetry group for a 
 trigonal (rhombohedral) supercell.


 Subroutine GETGRP returns: Found  1 space group operations
 (whereof  1 operations were pure point group operations)
 out of a pool of 12 trial point group operations.


The dynamic configuration has the point symmetry C_1 .


Analysis of structural, dynamic, and magnetic symmetry:
=====================================================================
 Subroutine PRICEL returns:
 Original cell was already a primitive cell.
 

 Routine SETGRP: Setting up the symmetry group for a 
 trigonal (rhombohedral) supercell.


 Subroutine GETGRP returns: Found  1 space group operations
 (whereof  1 operations were pure point group operations)
 out of a pool of 12 trial point group operations.


The magnetic configuration has the point symmetry C_1 .


 Subroutine INISYM returns: Found  1 space group operations
 (whereof  1 operations are pure point group operations),
 and found     1 'primitive' translations

 
 
 KPOINTS: Al2O3                                   

Automatic generation of k-mesh.
Space group operators:
 irot       det(A)        alpha          n_x          n_y          n_z        tau_x        tau_y        tau_z
    1     1.000000     0.000000     1.000000     0.000000     0.000000     0.000000     0.000000     0.000000
 
 Subroutine IBZKPT returns following result:
 ===========================================
 
 Found      1 irreducible k-points:
 
 Following reciprocal coordinates:
            Coordinates               Weight
  0.000000  0.000000  0.000000      1.000000
 
 Following cartesian coordinates:
            Coordinates               Weight
  0.000000  0.000000  0.000000      1.000000
 


--------------------------------------------------------------------------------------------------------




 Dimension of arrays:
   k-points           NKPTS =      1   k-points in BZ     NKDIM =      1   number of bands    NBANDS=    240
   number of dos      NEDOS =    301   number of ions     NIONS =     81
   non local maximal  LDIM  =      4   non local SUM 2l+1 LMDIM =      8
   total plane-waves  NPLWV = 216000
   max r-space proj   IRMAX =      1   max aug-charges    IRDMAX=  12219
   dimension x,y,z NGX =    60 NGY =   60 NGZ =   60
   dimension x,y,z NGXF=   120 NGYF=  120 NGZF=  120
   support grid    NGXF=   120 NGYF=  120 NGZF=  120
   ions per type =              32  48   1
   NGX,Y,Z   is equivalent  to a cutoff of   9.63,  9.63,  9.63 a.u.
   NGXF,Y,Z  is equivalent  to a cutoff of  19.26, 19.26, 19.26 a.u.

 SYSTEM =  Al2O3                                   
 POSCAR =  Al4 O6                                  

 Startparameter for this run:
   NWRITE =      2    write-flag & timer
   PREC   = normal    normal or accurate (medium, high low for compatibility)
   ISTART =      0    job   : 0-new  1-cont  2-samecut
   ICHARG =      2    charge: 1-file 2-atom 10-const
   ISPIN  =      2    spin polarized calculation?
   LNONCOLLINEAR =      F non collinear calculations
   LSORBIT =      F    spin-orbit coupling
   INIWAV =      1    electr: 0-lowe 1-rand  2-diag
   LASPH  =      F    aspherical Exc in radial PAW
   METAGGA=      F    non-selfconsistent MetaGGA calc.

 Electronic Relaxation 1
   ENCUT  =  500.0 eV  36.75 Ry    6.06 a.u.  18.88 18.88 18.88*2*pi/ulx,y,z
   ENINI  =  500.0     initial cutoff
   ENAUG  =  605.4 eV  augmentation charge cutoff
   NELM   =     60;   NELMIN=  2; NELMDL= -5     # of ELM steps 
   EDIFF  = 0.1E-03   stopping-criterion for ELM
   LREAL  =      F    real-space projection
   NLSPLINE    = F    spline interpolate recip. space projectors
   LCOMPAT=      F    compatible to vasp.4.4
   GGA_COMPAT  = T    GGA compatible to vasp.4.4-vasp.4.6
   LMAXPAW     = -100 max onsite density
   LMAXMIX     =    2 max onsite mixed and CHGCAR
   VOSKOWN=      0    Vosko Wilk Nusair interpolation
   ROPT   =    0.00000   0.00000   0.00000
 Ionic relaxation
   EDIFFG = -.5E-01   stopping-criterion for IOM
   NSW    =   1000    number of steps for IOM
   NBLOCK =      1;   KBLOCK =   1000    inner block; outer block 
   IBRION =      1    ionic relax: 0-MD 1-quasi-New 2-CG
   NFREE  =      0    steps in history (QN), initial steepest desc. (CG)
   ISIF   =      2    stress and relaxation
   IWAVPR =     11    prediction:  0-non 1-charg 2-wave 3-comb
   ISYM   =      2    0-nonsym 1-usesym 2-fastsym
   LCORR  =      T    Harris-Foulkes like correction to forces

   POTIM  = 0.5000    time-step for ionic-motion
   TEIN   =    0.0    initial temperature
   TEBEG  =    0.0;   TEEND  =   0.0 temperature during run
   SMASS  =  -3.00    Nose mass-parameter (am)
   estimated Nose-frequenzy (Omega)   =  0.10E-29 period in steps =****** mass=  -0.245E-26a.u.
   SCALEE = 1.0000    scale energy and forces
   NPACO  =    256;   APACO  = 16.0  distance and # of slots for P.C.
   PSTRESS=    0.0 pullay stress

  Mass of Ions in am
   POMASS =  26.98 16.00  1.00
  Ionic Valenz
   ZVAL   =   3.00  6.00  1.00
  Atomic Wigner-Seitz radii
   RWIGS  =   1.40  0.82  0.37
  virtual crystal weights 
   VCA    =   1.00  1.00  1.00
   NELECT =     385.0000    total number of electrons
   NUPDOWN=      -1.0000    fix difference up-down

 DOS related values:
   EMIN   =  10.00;   EMAX   =-10.00  energy-range for DOS
   EFERMI =   0.00
   ISMEAR =     0;   SIGMA  =   0.05  broadening in eV -4-tet -1-fermi 0-gaus

 Electronic relaxation 2 (details)
   IALGO  =     38    algorithm
   LDIAG  =      T    sub-space diagonalisation (order eigenvalues)
   LSUBROT=      F    optimize rotation matrix (better conditioning)
   TURBO    =      0    0=normal 1=particle mesh
   IRESTART =      0    0=no restart 2=restart with 2 vectors
   NREBOOT  =      0    no. of reboots
   NMIN     =      0    reboot dimension
   EREF     =   0.00    reference energy to select bands
   IMIX   =      4    mixing-type and parameters
     AMIX     =   0.40;   BMIX     =  1.00
     AMIX_MAG =   1.60;   BMIX_MAG =  1.00
     AMIN     =   0.10
     WC   =   100.;   INIMIX=   1;  MIXPRE=   1;  MAXMIX= -45

 Intra band minimization:
   WEIMIN = 0.0010     energy-eigenvalue tresh-hold
   EBREAK =  0.10E-06  absolut break condition
   DEPER  =   0.30     relativ break condition  

   TIME   =   0.40     timestep for ELM

  volume/ion in A,a.u.               =       8.63        58.27
  Fermi-wavevector in a.u.,A,eV,Ry     =   1.341719  2.535480 24.493326  1.800209
  Thomas-Fermi vector in A             =   2.469930
 
 Write flags
   LWAVE        =      F    write WAVECAR
   LDOWNSAMPLE  =      F    k-point downsampling of WAVECAR
   LCHARG       =      F    write CHGCAR
   LVTOT        =      F    write LOCPOT, total local potential
   LVHAR        =      F    write LOCPOT, Hartree potential only
   LELF         =      F    write electronic localiz. function (ELF)
   LORBIT       =      0    0 simple, 1 ext, 2 COOP (PROOUT), +10 PAW based schemes


 Dipole corrections
   LMONO  =      F    monopole corrections only (constant potential shift)
   LDIPOL =      F    correct potential (dipole corrections)
   IDIPOL =      0    1-x, 2-y, 3-z, 4-all directions 
   EPSILON=  1.0000000 bulk dielectric constant

 Exchange correlation treatment:
   GGA     =    PE    GGA type
   LEXCH   =     8    internal setting for exchange type
   VOSKOWN=      0    Vosko Wilk Nusair interpolation
   LHFCALC =     F    Hartree Fock is set to
   LHFONE  =     F    Hartree Fock one center treatment
   AEXX    =    0.0000 exact exchange contribution

 Linear response parameters
   LEPSILON=     F    determine dielectric tensor
   LRPA    =     F    only Hartree local field effects (RPA)
   LNABLA  =     F    use nabla operator in PAW spheres
   LVEL    =     F    velocity operator in full k-point grid
   LINTERFAST=   F  fast interpolation
   KINTER  =     0    interpolate to denser k-point grid
   CSHIFT  =0.1000    complex shift for real part using Kramers Kronig
   OMEGAMAX=  -1.0    maximum frequency
   DEG_THRESHOLD= 0.2000000E-02 threshold for treating states as degnerate
   RTIME   =   -0.100 relaxation time in fs
  (WPLASMAI=    0.000 imaginary part of plasma frequency in eV, 0.658/RTIME)
   DFIELD  = 0.0000000 0.0000000 0.0000000 field for delta impulse in time
 
 Orbital magnetization related:
   ORBITALMAG=     F  switch on orbital magnetization
   LCHIMAG   =     F  perturbation theory with respect to B field
   DQ        =  0.001000  dq finite difference perturbation B field
   LLRAUG    =     F  two centre corrections for induced B field



--------------------------------------------------------------------------------------------------------


 quasi-Newton-method for relaxation of ions
 charge density and potential will be updated during run
 spin polarized calculation
 Variant of blocked Davidson
 Davidson routine will perform the subspace rotation
 perform sub-space diagonalisation
    after iterative eigenvector-optimisation
 modified Broyden-mixing scheme, WC =      100.0
 initial mixing is a Kerker type mixing with AMIX =  0.4000 and BMIX =      1.0000
 Hartree-type preconditioning will be used
 using additional bands           47
 reciprocal scheme for non local part
 use partial core corrections
 calculate Harris-corrections to forces 
   (improved forces if not selfconsistent)
 use gradient corrections 
 use of overlap-Matrix (Vanderbilt PP)
 Gauss-broadening in eV      SIGMA  =   0.05


--------------------------------------------------------------------------------------------------------


  energy-cutoff  :      500.00
  volume of cell :      699.36
      direct lattice vectors                 reciprocal lattice vectors
    10.355910301  0.000000000  0.000000000     0.096563216 -0.066889446 -0.045736898
     5.896951249  8.512980919  0.000000000     0.000000000  0.117467666 -0.045736898
     5.896951249  3.088725841  7.932881999     0.000000000  0.000000000  0.126057592

  length of vectors
    10.355910301 10.355910301 10.355910301     0.126057592  0.126057592  0.126057592


 
 k-points in units of 2pi/SCALE and weight: Al2O3                                   
   0.00000000  0.00000000  0.00000000       1.000
 
 k-points in reciprocal lattice and weights: Al2O3                                   
   0.00000000  0.00000000  0.00000000       1.000
 
 position of ions in fractional coordinates (direct lattice) 
   0.92692803  0.92792998  0.92085823
   0.91663827  0.93182988  0.43242289
   0.08075569  0.57433348  0.06486859
   0.07245748  0.57728802  0.57161856
   0.68239922  0.17588981  0.17321360
   0.57677345  0.08224157  0.57772468
   0.57037344  0.57234771  0.07111107
   0.57738936  0.56244538  0.57119263
   0.17488232  0.16990195  0.18210298
   0.18114459  0.17537675  0.68007802
   0.17658587  0.67246186  0.17430473
   0.16765184  0.68675982  0.67890121
   0.82493373  0.33097205  0.32582958
   0.57147736  0.07748716  0.07711808
   0.66666029  0.67767570  0.17635671
   0.67189133  0.68494231  0.66470208
   0.32860085  0.33068946  0.32108545
   0.31623798  0.33598838  0.82346842
   0.32311993  0.83379363  0.32025323
   0.33105571  0.82356297  0.81573601
   0.68279493  0.17588295  0.68471333
   0.83504563  0.31533262  0.82035180
   0.84166934  0.81804045  0.32020776
   0.82102879  0.82214609  0.82664971
   0.42426799  0.43040040  0.42287995
   0.42241151  0.41791901  0.93316016
   0.43035013  0.92645545  0.42557452
   0.42715956  0.92252160  0.91883393
   0.93435535  0.42102197  0.43461220
   0.92396455  0.42686989  0.92598077
   0.07975071  0.06475750  0.08018240
   0.07800656  0.07499460  0.57674955
   0.27638305  0.46268248  0.12985403
   0.26603729  0.47362806  0.62804395
   0.28436409  0.95907395  0.11818930
   0.27857143  0.97487534  0.62413153
   0.76326994  0.48425264  0.12085258
   0.77024419  0.47220228  0.62324503
   0.77101087  0.96933371  0.12866010
   0.76951989  0.96956540  0.63310269
   0.37609228  0.21540279  0.02510990
   0.37162438  0.22600173  0.53580802
   0.38044070  0.71608790  0.01908561
   0.36954038  0.72963601  0.52031737
   0.87546594  0.21957978  0.02295762
   0.88179308  0.21840144  0.53728495
   0.87438671  0.71546991  0.02637922
   0.87399664  0.72210824  0.52562691
   0.13093190  0.27269850  0.47316402
   0.12240240  0.27453217  0.98388530
   0.12267913  0.78840202  0.46510622
   0.12751408  0.77589371  0.96472128
   0.62428429  0.27351291  0.48057170
   0.61950146  0.27237026  0.98749126
   0.63451309  0.76971477  0.47022000
   0.62481406  0.78262225  0.97160806
   0.47455842  0.13335656  0.27227271
   0.46667787  0.12582864  0.78098503
   0.46981439  0.62462430  0.27514021
   0.45937461  0.62436959  0.77580054
   0.97067870  0.11982905  0.28373865
   0.98433858  0.11731625  0.78046071
   0.97869848  0.61913541  0.28009619
   0.96588852  0.62227904  0.77742206
   0.02816954  0.36682461  0.23144783
   0.03087633  0.37109431  0.72331358
   0.03564586  0.86897560  0.22473574
   0.01647043  0.88182992  0.71458031
   0.52768949  0.37578081  0.22555210
   0.52149541  0.36782042  0.72413912
   0.53517345  0.87694662  0.22233380
   0.52908434  0.87339940  0.71847676
   0.21835863  0.04081048  0.37295645
   0.21995678  0.02375881  0.87288335
   0.21622522  0.53158155  0.37460071
   0.21694393  0.53413314  0.87917471
   0.71407208  0.03402957  0.38081967
   0.73013790  0.03249656  0.86808068
   0.71739133  0.52783038  0.37508895
   0.71753388  0.53373536  0.86255278
   0.62275257  0.44674857  0.66373939
 
 position of ions in cartesian coordinates  (Angst):
  20.50139752 10.74372885  7.30505968
  17.53755581  9.26828579  3.43035979
   4.60564217  5.08965126  0.51459489
   7.52540925  6.68001490  4.53458255
   9.12551085  2.03235588  1.37408306
   9.86480285  2.48455406  4.58302169
   9.70118123  5.09202771  0.56411571
  12.66440048  6.55234424  4.53120370
   3.88682153  2.00883827  1.44460144
   6.92049227  3.59355351  5.39497872
   6.82204877  6.26303449  1.38273888
   9.78942389  7.94331292  5.38564316
  12.41606698  3.82395704  2.58476763
   6.82986778  0.89784330  0.61176860
  11.94006168  6.31375787  1.39901701
  14.91683351  7.88398326  5.27300313
   7.24644579  3.80689797  2.54713300
  10.11219235  5.40373087  6.53247779
  10.15155910  8.08724373  2.54053112
  13.09524940  9.53056074  6.47113748
  12.14585731  3.61217992  5.43175004
  15.34473326  5.21826237  6.50775399
  15.42844641  7.95299671  2.54017037
  18.22536892  9.55220827  6.55771458
   9.42543387  4.97015060  3.35465672
  12.34170369  6.44001242  7.40264944
  12.42952220  9.20138062  3.37603244
  15.28200996 10.69143493  7.28900117
  14.72173320  4.92654989  3.44772727
  17.54618833  6.49403596  7.34569614
   1.68059468  0.79894078  0.63607749
   4.65113245  2.41984884  4.57528610
   6.35635701  4.33989062  1.03011669
   9.25156439  5.97184221  4.98219853
   9.29741787  8.52963260  0.93758174
  12.31412633 10.22686636  4.95116181
  11.47263102  4.49571397  0.95870922
  14.43637914  5.94488200  4.94412930
  14.45933535  8.64931511  1.02064535
  17.41993453 10.20937236  5.02232890
   5.31306952  1.91127743  0.19919386
   8.34086371  3.57891252  4.25050181
   8.27509216  6.15499285  0.15140392
  11.19784110  7.81849510  4.12761630
  10.49647794  1.94018828  0.18212006
  13.58801588  3.51877322  4.26221812
  13.42971844  6.17225984  0.20926322
  16.40886420  7.77081112  4.16973623
   5.75423395  3.78295103  3.75355431
   8.68841472  5.37603904  7.80504595
   8.66233107  8.14823698  3.68963279
  11.58484608  9.58492789  7.65302009
  10.91183231  3.81276445  3.81231858
  13.84484359  5.36877263  7.83365165
  13.88279549  8.00494779  3.73019977
  16.81512899  9.66347918  7.70765212
   7.30646044  1.97623759  2.15990731
  10.18031016  3.48342546  6.19546209
  10.17122312  6.16724741  2.18265484
  13.01397727  7.71148155  6.15433414
  12.43208058  1.89649328  2.25086523
  15.48786903  3.40934018  6.19130269
  15.43803862  6.13582829  2.22196999
  18.25662399  7.69869317  6.16719744
   3.81970464  3.83764985  1.83604835
   6.77342246  5.39323611  5.73796128
   6.81870775  8.09171975  1.78280212
   9.58451956  9.71414394  5.66868129
   9.01073592  3.89568346  1.78927823
  11.83979185  5.36791545  5.74451019
  12.02461130  8.15215798  1.76374781
  14.86636607  9.65441014  5.69959137
   4.70126580  1.49937904  2.95861951
   7.56530773  2.89835564  6.92448061
   7.58292160  5.68238251  2.97166324
  10.58085935  7.26259488  6.97438925
   9.84121217  1.46594064  3.02099753
  12.87190273  2.95790582  6.88638164
  12.75371152  5.65195686  2.97553636
  15.66455966  7.20786805  6.84252945
  12.99766317  5.85327106  5.26536630
 


--------------------------------------------------------------------------------------------------------


 k-point  1 :   0.0000 0.0000 0.0000  plane waves:   17833

 maximum and minimum number of plane-waves per node :     17833    17833

 maximum number of plane-waves:     17833
 maximum index in each direction: 
   IXMAX=   18   IYMAX=   18   IZMAX=   18
   IXMIN=  -18   IYMIN=  -18   IZMIN=  -18


 serial   3D FFT for wavefunctions
 parallel 3D FFT for charge:
    minimum data exchange during FFTs selected (reduces bandwidth)


 total amount of memory used by VASP MPI-rank0   119711. kBytes
=======================================================================

   base      :      30000. kBytes
   nonl-proj :      26545. kBytes
   fftplans  :       8259. kBytes
   grid      :      36662. kBytes
   one-center:        497. kBytes
   wavefun   :      17748. kBytes
 
     INWAV:  cpu time    0.0010: real time    0.0001
 Broyden mixing: mesh for mixing (old mesh)
   NGX = 37   NGY = 37   NGZ = 37
  (NGX  =120   NGY  =120   NGZ  =120)
  gives a total of  50653 points

 initial charge density was supplied:
 charge density of overlapping atoms calculated
 number of electron     385.0000000 magnetization       1.0000000
 keeping initial charge density in first step


--------------------------------------------------------------------------------------------------------


 Maximum index for augmentation-charges         1519 (set IRDMAX)


--------------------------------------------------------------------------------------------------------


 First call to EWALD:  gamma=   0.200
 Maximum number of real-space cells 3x 3x 3
 Maximum number of reciprocal cells 3x 3x 3

    FEWALD:  cpu time    0.0050: real time    0.0043


--------------------------------------- Iteration      1(   1)  ---------------------------------------


    POTLOK:  cpu time    0.3549: real time    0.3564
    SETDIJ:  cpu time    0.0420: real time    0.0413
     EDDAV:  cpu time   10.3624: real time   10.3824
       DOS:  cpu time    0.0000: real time    0.0005
    --------------------------------------------
      LOOP:  cpu time   10.7594: real time   10.7806

 eigenvalue-minimisations  :   960
 total energy-change (2. order) : 0.2123231E+04  (-0.2010152E+05)
 number of electron     385.0000000 magnetization       1.0000000
 augmentation part      385.0000000 magnetization       1.0000000

 Free energy of the ion-electron system (eV)
  ---------------------------------------------------
  alpha Z        PSCENC =       593.57698122
  Ewald energy   TEWEN  =    -18983.37122881
  -Hartree energ DENC   =     -5155.28349065
  -exchange      EXHF   =         0.00000000
  -V(xc)+E(xc)   XCENC  =       532.64183340
  PAW double counting   =     18754.57418007   -17818.37357977
  entropy T*S    EENTRO =        -0.00437789
  eigenvalues    EBANDS =      1720.64663051
  atomic energy  EATOM  =     22478.82442253
  Solvation  Ediel_sol  =         0.00000000
  ---------------------------------------------------
  free energy    TOTEN  =      2123.23137060 eV

  energy without entropy =     2123.23574850  energy(sigma->0) =     2123.23355955


--------------------------------------------------------------------------------------------------------




--------------------------------------- Iteration      1(   2)  ---------------------------------------


     EDDAV:  cpu time   11.9072: real time   11.9756
       DOS:  cpu time    0.0000: real time    0.0003
    --------------------------------------------
      LOOP:  cpu time   11.9072: real time   11.9759

 eigenvalue-minimisations  :  1144
 total energy-change (2. order) :-0.2624260E+04  (-0.2560508E+04)
 number of electron     385.0000000 magnetization       1.0000000
 augmentation part      385.0000000 magnetization       1.0000000

 Free energy of the ion-electron system (eV)
  ---------------------------------------------------
  alpha Z        PSCENC =       593.57698122
  Ewald energy   TEWEN  =    -18983.37122881
  -Hartree energ DENC   =     -5155.28349065
  -exchange      EXHF   =         0.00000000
  -V(xc)+E(xc)   XCENC  =       532.64183340
  PAW double counting   =     18754.57418007   -17818.37357977
  entropy T*S    EENTRO =        -0.00000000
  eigenvalues    EBANDS =      -903.61793298
  atomic energy  EATOM  =     22478.82442253
  Solvation  Ediel_sol  =         0.00000000
  ---------------------------------------------------
  free energy    TOTEN  =      -501.02881500 eV

  energy without entropy =     -501.02881500  energy(sigma->0) =     -501.02881500


--------------------------------------------------------------------------------------------------------




--------------------------------------- Iteration      1(   3)  ---------------------------------------


     EDDAV:  cpu time   11.6342: real time   11.7084
       DOS:  cpu time    0.0000: real time    0.0002
    --------------------------------------------
      LOOP:  cpu time   11.6342: real time   11.7086

 eigenvalue-minimisations  :  1136
 total energy-change (2. order) :-0.1495539E+03  (-0.1488267E+03)
 number of electron     385.0000000 magnetization       1.0000000
 augmentation part      385.0000000 magnetization       1.0000000

 Free energy of the ion-electron system (eV)
  ---------------------------------------------------
  alpha Z        PSCENC =       593.57698122
  Ewald energy   TEWEN  =    -18983.37122881
  -Hartree energ DENC   =     -5155.28349065
  -exchange      EXHF   =         0.00000000
  -V(xc)+E(xc)   XCENC  =       532.64183340
  PAW double counting   =     18754.57418007   -17818.37357977
  entropy T*S    EENTRO =        -0.00000000
  eigenvalues    EBANDS =     -1053.17181085
  atomic energy  EATOM  =     22478.82442253
  Solvation  Ediel_sol  =         0.00000000
  ---------------------------------------------------
  free energy    TOTEN  =      -650.58269287 eV

  energy without entropy =     -650.58269287  energy(sigma->0) =     -650.58269287


--------------------------------------------------------------------------------------------------------




--------------------------------------- Iteration      1(   4)  ---------------------------------------


     EDDAV:  cpu time   11.3163: real time   11.3166
       DOS:  cpu time    0.0000: real time    0.0002
    --------------------------------------------
      LOOP:  cpu time   11.3163: real time   11.3168

 eigenvalue-minimisations  :  1120
 total energy-change (2. order) :-0.1865235E+01  (-0.1859479E+01)
 number of electron     385.0000000 magnetization       1.0000000
 augmentation part      385.0000000 magnetization       1.0000000

 Free energy of the ion-electron system (eV)
  ---------------------------------------------------
  alpha Z        PSCENC =       593.57698122
  Ewald energy   TEWEN  =    -18983.37122881
  -Hartree energ DENC   =     -5155.28349065
  -exchange      EXHF   =         0.00000000
  -V(xc)+E(xc)   XCENC  =       532.64183340
  PAW double counting   =     18754.57418007   -17818.37357977
  entropy T*S    EENTRO =        -0.00000000
  eigenvalues    EBANDS =     -1055.03704613
  atomic energy  EATOM  =     22478.82442253
  Solvation  Ediel_sol  =         0.00000000
  ---------------------------------------------------
  free energy    TOTEN  =      -652.44792814 eV

  energy without entropy =     -652.44792814  energy(sigma->0) =     -652.44792814


--------------------------------------------------------------------------------------------------------




--------------------------------------- Iteration      1(   5)  ---------------------------------------


     EDDAV:  cpu time   10.7724: real time   10.7721
       DOS:  cpu time    0.0000: real time    0.0002
    CHARGE:  cpu time    0.2550: real time    0.2550
    MIXING:  cpu time    0.0080: real time    0.0078
    --------------------------------------------
      LOOP:  cpu time   11.0353: real time   11.0352

 eigenvalue-minimisations  :  1112
 total energy-change (2. order) :-0.3418016E-01  (-0.3414726E-01)
 number of electron     384.9999983 magnetization       1.0000001
 augmentation part       37.6306565 magnetization       0.0662706

 Broyden mixing:
  rms(total) = 0.49815E+01    rms(broyden)= 0.49801E+01
  rms(prec ) = 0.69237E+01
  weight for this iteration     100.00

 Free energy of the ion-electron system (eV)
  ---------------------------------------------------
  alpha Z        PSCENC =       593.57698122
  Ewald energy   TEWEN  =    -18983.37122881
  -Hartree energ DENC   =     -5155.28349065
  -exchange      EXHF   =         0.00000000
  -V(xc)+E(xc)   XCENC  =       532.64183340
  PAW double counting   =     18754.57418007   -17818.37357977
  entropy T*S    EENTRO =        -0.00000000
  eigenvalues    EBANDS =     -1055.07122629
  atomic energy  EATOM  =     22478.82442253
  Solvation  Ediel_sol  =         0.00000000
  ---------------------------------------------------
  free energy    TOTEN  =      -652.48210830 eV

  energy without entropy =     -652.48210830  energy(sigma->0) =     -652.48210830


--------------------------------------------------------------------------------------------------------




--------------------------------------- Iteration      1(   6)  ---------------------------------------


    POTLOK:  cpu time    0.3349: real time    0.3370
    SETDIJ:  cpu time    0.0480: real time    0.0474
     EDDAV:  cpu time   11.1033: real time   11.1041
       DOS:  cpu time    0.0000: real time    0.0002
    CHARGE:  cpu time    0.2530: real time    0.2528
    MIXING:  cpu time    0.0070: real time    0.0067
    --------------------------------------------
      LOOP:  cpu time   11.7462: real time   11.7482

 eigenvalue-minimisations  :  1096
 total energy-change (2. order) : 0.6933164E+02  (-0.3385522E+02)
 number of electron     384.9999986 magnetization       1.0000001
 augmentation part       31.7070493 magnetization       0.0355477

 Broyden mixing:
  rms(total) = 0.17252E+01    rms(broyden)= 0.17237E+01
  rms(prec ) = 0.19646E+01
  weight for this iteration     100.00

 eigenvalues of (default mixing * dielectric matrix)
  average eigenvalue GAMMA=   0.9377
  0.9377

 Free energy of the ion-electron system (eV)
  ---------------------------------------------------
  alpha Z        PSCENC =       593.57698122
  Ewald energy   TEWEN  =    -18983.37122881
  -Hartree energ DENC   =     -5919.85364575
  -exchange      EXHF   =         0.00000000
  -V(xc)+E(xc)   XCENC  =       586.69076231
  PAW double counting   =     24018.03770664   -23097.37842836
  entropy T*S    EENTRO =        -0.00000000
  eigenvalues    EBANDS =      -259.67703719
  atomic energy  EATOM  =     22478.82442253
  Solvation  Ediel_sol  =         0.00000000
  ---------------------------------------------------
  free energy    TOTEN  =      -583.15046741 eV

  energy without entropy =     -583.15046741  energy(sigma->0) =     -583.15046741


--------------------------------------------------------------------------------------------------------




--------------------------------------- Iteration      1(   7)  ---------------------------------------


    POTLOK:  cpu time    0.3309: real time    0.3311
    SETDIJ:  cpu time    0.0470: real time    0.0471
     EDDAV:  cpu time   11.5622: real time   11.5622
       DOS:  cpu time    0.0000: real time    0.0003
    CHARGE:  cpu time    0.2680: real time    0.2684
    MIXING:  cpu time    0.0100: real time    0.0093
    --------------------------------------------
      LOOP:  cpu time   12.2181: real time   12.2185

 eigenvalue-minimisations  :  1064
 total energy-change (2. order) :-0.2798681E+01  (-0.1471520E+01)
 number of electron     384.9999986 magnetization       1.0000002
 augmentation part       31.3730223 magnetization       0.0336360

 Broyden mixing:
  rms(total) = 0.97925E+00    rms(broyden)= 0.97914E+00
  rms(prec ) = 0.11321E+01
  weight for this iteration     100.00

 eigenvalues of (default mixing * dielectric matrix)
  average eigenvalue GAMMA=   1.0615
  1.0615  1.0615

 Free energy of the ion-electron system (eV)
  ---------------------------------------------------
  alpha Z        PSCENC =       593.57698122
  Ewald energy   TEWEN  =    -18983.37122881
  -Hartree energ DENC   =     -5981.63879387
  -exchange      EXHF   =         0.00000000
  -V(xc)+E(xc)   XCENC  =       592.14190751
  PAW double counting   =     28003.24198201   -27082.21832676
  entropy T*S    EENTRO =        -0.00000000
  eigenvalues    EBANDS =      -206.50609216
  atomic energy  EATOM  =     22478.82442253
  Solvation  Ediel_sol  =         0.00000000
  ---------------------------------------------------
  free energy    TOTEN  =      -585.94914832 eV

  energy without entropy =     -585.94914832  energy(sigma->0) =     -585.94914832


--------------------------------------------------------------------------------------------------------




--------------------------------------- Iteration      1(   8)  ---------------------------------------


    POTLOK:  cpu time    0.3309: real time    0.3314
    SETDIJ:  cpu time    0.0460: real time    0.0453
     EDDAV:  cpu time   11.6562: real time   11.6576
       DOS:  cpu time    0.0000: real time    0.0003
    CHARGE:  cpu time    0.3599: real time    0.3597
    MIXING:  cpu time    0.0260: real time    0.0254
    --------------------------------------------
      LOOP:  cpu time   12.4191: real time   12.4197

 eigenvalue-minimisations  :  1080
 total energy-change (2. order) :-0.1766952E+01  (-0.4615320E+00)
 number of electron     384.9999986 magnetization       1.0000002
 augmentation part       31.4186588 magnetization       0.0640982

 Broyden mixing:
  rms(total) = 0.46245E+00    rms(broyden)= 0.46231E+00
  rms(prec ) = 0.55313E+00
  weight for this iteration     100.00

 eigenvalues of (default mixing * dielectric matrix)
  average eigenvalue GAMMA=   1.1938
  1.6866  1.1435  0.7512

 Free energy of the ion-electron system (eV)
  ---------------------------------------------------
  alpha Z        PSCENC =       593.57698122
  Ewald energy   TEWEN  =    -18983.37122881
  -Hartree energ DENC   =     -6000.14024834
  -exchange      EXHF   =         0.00000000
  -V(xc)+E(xc)   XCENC  =       594.27335503
  PAW double counting   =     30836.87547025   -29915.53846527
  entropy T*S    EENTRO =        -0.00000000
  eigenvalues    EBANDS =      -192.21638672
  atomic energy  EATOM  =     22478.82442253
  Solvation  Ediel_sol  =         0.00000000
  ---------------------------------------------------
  free energy    TOTEN  =      -587.71610011 eV

  energy without entropy =     -587.71610011  energy(sigma->0) =     -587.71610011


--------------------------------------------------------------------------------------------------------




--------------------------------------- Iteration      1(   9)  ---------------------------------------


    POTLOK:  cpu time    0.4209: real time    0.4222
    SETDIJ:  cpu time    0.0840: real time    0.0834
     EDDAV:  cpu time   11.3273: real time   11.3282
       DOS:  cpu time    0.0000: real time    0.0003
    CHARGE:  cpu time    0.2820: real time    0.2822
    MIXING:  cpu time    0.0080: real time    0.0069
    --------------------------------------------
      LOOP:  cpu time   12.1222: real time   12.1232

 eigenvalue-minimisations  :  1104
 total energy-change (2. order) :-0.1141216E+00  (-0.1168473E+00)
 number of electron     384.9999986 magnetization       1.0000001
 augmentation part       31.3993195 magnetization       0.0545368

 Broyden mixing:
  rms(total) = 0.18295E+00    rms(broyden)= 0.18289E+00
  rms(prec ) = 0.20555E+00
  weight for this iteration     100.00

 eigenvalues of (default mixing * dielectric matrix)
  average eigenvalue GAMMA=   1.2141
  2.1737  1.0782  0.8645  0.7398

 Free energy of the ion-electron system (eV)
  ---------------------------------------------------
  alpha Z        PSCENC =       593.57698122
  Ewald energy   TEWEN  =    -18983.37122881
  -Hartree energ DENC   =     -6018.95017536
  -exchange      EXHF   =         0.00000000
  -V(xc)+E(xc)   XCENC  =       596.28325767
  PAW double counting   =     32064.17464535   -31142.84608397
  entropy T*S    EENTRO =        -0.00000000
  eigenvalues    EBANDS =      -175.52204033
  atomic energy  EATOM  =     22478.82442253
  Solvation  Ediel_sol  =         0.00000000
  ---------------------------------------------------
  free energy    TOTEN  =      -587.83022169 eV

  energy without entropy =     -587.83022169  energy(sigma->0) =     -587.83022169


--------------------------------------------------------------------------------------------------------




--------------------------------------- Iteration      1(  10)  ---------------------------------------


    POTLOK:  cpu time    0.3229: real time    0.3234
    SETDIJ:  cpu time    0.0470: real time    0.0471
     EDDAV:  cpu time   11.4513: real time   11.4516
       DOS:  cpu time    0.0000: real time    0.0003
    CHARGE:  cpu time    0.2510: real time    0.2509
    MIXING:  cpu time    0.0090: real time    0.0085
    --------------------------------------------
      LOOP:  cpu time   12.0812: real time   12.0817

 eigenvalue-minimisations  :  1120
 total energy-change (2. order) :-0.3048353E-01  (-0.9096990E-02)
 number of electron     384.9999986 magnetization       1.0000001
 augmentation part       31.3735980 magnetization       0.0524750

 Broyden mixing:
  rms(total) = 0.97081E-01    rms(broyden)= 0.97072E-01
  rms(prec ) = 0.10916E+00
  weight for this iteration     100.00

 eigenvalues of (default mixing * dielectric matrix)
  average eigenvalue GAMMA=   1.2091
  2.2278  1.2602  0.9533  0.9533  0.6508

 Free energy of the ion-electron system (eV)
  ---------------------------------------------------
  alpha Z        PSCENC =       593.57698122
  Ewald energy   TEWEN  =    -18983.37122881
  -Hartree energ DENC   =     -6028.43694439
  -exchange      EXHF   =         0.00000000
  -V(xc)+E(xc)   XCENC  =       597.24079968
  PAW double counting   =     32312.80348327   -31391.52397884
  entropy T*S    EENTRO =        -0.00000000
  eigenvalues    EBANDS =      -166.97423988
  atomic energy  EATOM  =     22478.82442253
  Solvation  Ediel_sol  =         0.00000000
  ---------------------------------------------------
  free energy    TOTEN  =      -587.86070522 eV

  energy without entropy =     -587.86070522  energy(sigma->0) =     -587.86070522


--------------------------------------------------------------------------------------------------------




--------------------------------------- Iteration      1(  11)  ---------------------------------------


    POTLOK:  cpu time    0.3309: real time    0.3325
    SETDIJ:  cpu time    0.0470: real time    0.0465
     EDDAV:  cpu time   10.9923: real time   10.9934
       DOS:  cpu time    0.0010: real time    0.0002
    CHARGE:  cpu time    0.2340: real time    0.2340
    MIXING:  cpu time    0.0080: real time    0.0082
    --------------------------------------------
      LOOP:  cpu time   11.6132: real time   11.6148

 eigenvalue-minimisations  :  1096
 total energy-change (2. order) :-0.6131827E-04  (-0.1502341E-02)
 number of electron     384.9999986 magnetization       1.0000001
 augmentation part       31.3692755 magnetization       0.0530190

 Broyden mixing:
  rms(total) = 0.56716E-01    rms(broyden)= 0.56713E-01
  rms(prec ) = 0.61234E-01
  weight for this iteration     100.00

 eigenvalues of (default mixing * dielectric matrix)
  average eigenvalue GAMMA=   1.3095
  2.3531  2.0415  0.9624  0.9371  0.9371  0.6258

 Free energy of the ion-electron system (eV)
  ---------------------------------------------------
  alpha Z        PSCENC =       593.57698122
  Ewald energy   TEWEN  =    -18983.37122881
  -Hartree energ DENC   =     -6030.11789388
  -exchange      EXHF   =         0.00000000
  -V(xc)+E(xc)   XCENC  =       597.40265492
  PAW double counting   =     32195.78803185   -31274.50798829
  entropy T*S    EENTRO =        -0.00000000
  eigenvalues    EBANDS =      -165.45574607
  atomic energy  EATOM  =     22478.82442253
  Solvation  Ediel_sol  =         0.00000000
  ---------------------------------------------------
  free energy    TOTEN  =      -587.86076654 eV

  energy without entropy =     -587.86076654  energy(sigma->0) =     -587.86076654


--------------------------------------------------------------------------------------------------------




--------------------------------------- Iteration      1(  12)  ---------------------------------------


    POTLOK:  cpu time    0.3399: real time    0.3401
    SETDIJ:  cpu time    0.0460: real time    0.0463
     EDDAV:  cpu time   11.7702: real time   11.7706
       DOS:  cpu time    0.0000: real time    0.0002
    CHARGE:  cpu time    0.2480: real time    0.2482
    MIXING:  cpu time    0.0090: real time    0.0088
    --------------------------------------------
      LOOP:  cpu time   12.4131: real time   12.4143

 eigenvalue-minimisations  :  1112
 total energy-change (2. order) :-0.3113151E-02  (-0.9753593E-03)
 number of electron     384.9999986 magnetization       1.0000001
 augmentation part       31.3685119 magnetization       0.0547473

 Broyden mixing:
  rms(total) = 0.17621E-01    rms(broyden)= 0.17616E-01
  rms(prec ) = 0.20096E-01
  weight for this iteration     100.00

 eigenvalues of (default mixing * dielectric matrix)
  average eigenvalue GAMMA=   1.2866
  2.5253  2.1986  0.9645  0.9645  0.9902  0.6530  0.7098

 Free energy of the ion-electron system (eV)
  ---------------------------------------------------
  alpha Z        PSCENC =       593.57698122
  Ewald energy   TEWEN  =    -18983.37122881
  -Hartree energ DENC   =     -6032.33396442
  -exchange      EXHF   =         0.00000000
  -V(xc)+E(xc)   XCENC  =       597.63331818
  PAW double counting   =     32050.37010124   -31129.08492275
  entropy T*S    EENTRO =        -0.00000000
  eigenvalues    EBANDS =      -163.47858687
  atomic energy  EATOM  =     22478.82442253
  Solvation  Ediel_sol  =         0.00000000
  ---------------------------------------------------
  free energy    TOTEN  =      -587.86387969 eV

  energy without entropy =     -587.86387969  energy(sigma->0) =     -587.86387969


--------------------------------------------------------------------------------------------------------




--------------------------------------- Iteration      1(  13)  ---------------------------------------


    POTLOK:  cpu time    0.3319: real time    0.3323
    SETDIJ:  cpu time    0.0480: real time    0.0477
     EDDAV:  cpu time   11.0813: real time   11.0816
       DOS:  cpu time    0.0000: real time    0.0002
    CHARGE:  cpu time    0.2510: real time    0.2510
    MIXING:  cpu time    0.0100: real time    0.0093
    --------------------------------------------
      LOOP:  cpu time   11.7222: real time   11.7223

 eigenvalue-minimisations  :  1096
 total energy-change (2. order) :-0.2009639E-03  (-0.1085297E-03)
 number of electron     384.9999986 magnetization       1.0000001
 augmentation part       31.3704716 magnetization       0.0553642

 Broyden mixing:
  rms(total) = 0.82094E-02    rms(broyden)= 0.82058E-02
  rms(prec ) = 0.91749E-02
  weight for this iteration     100.00

 eigenvalues of (default mixing * dielectric matrix)
  average eigenvalue GAMMA=   1.2972
  2.6199  2.3260  1.0564  1.0564  0.9667  0.9667  0.7576  0.6283

 Free energy of the ion-electron system (eV)
  ---------------------------------------------------
  alpha Z        PSCENC =       593.57698122
  Ewald energy   TEWEN  =    -18983.37122881
  -Hartree energ DENC   =     -6032.43459645
  -exchange      EXHF   =         0.00000000
  -V(xc)+E(xc)   XCENC  =       597.64955683
  PAW double counting   =     32016.19758820   -31094.91336721
  entropy T*S    EENTRO =        -0.00000000
  eigenvalues    EBANDS =      -163.39343696
  atomic energy  EATOM  =     22478.82442253
  Solvation  Ediel_sol  =         0.00000000
  ---------------------------------------------------
  free energy    TOTEN  =      -587.86408065 eV

  energy without entropy =     -587.86408065  energy(sigma->0) =     -587.86408065


--------------------------------------------------------------------------------------------------------




--------------------------------------- Iteration      1(  14)  ---------------------------------------


    POTLOK:  cpu time    0.3299: real time    0.3305
    SETDIJ:  cpu time    0.0490: real time    0.0489
     EDDAV:  cpu time    9.7165: real time    9.7157
       DOS:  cpu time    0.0000: real time    0.0002
    --------------------------------------------
      LOOP:  cpu time   10.0955: real time   10.0954

 eigenvalue-minimisations  :   984
 total energy-change (2. order) :-0.9199224E-04  (-0.4801147E-04)
 number of electron     384.9999986 magnetization       1.0000001
 augmentation part       31.3704716 magnetization       0.0553642

 Free energy of the ion-electron system (eV)
  ---------------------------------------------------
  alpha Z        PSCENC =       593.57698122
  Ewald energy   TEWEN  =    -18983.37122881
  -Hartree energ DENC   =     -6032.50213762
  -exchange      EXHF   =         0.00000000
  -V(xc)+E(xc)   XCENC  =       597.65766311
  PAW double counting   =     31990.29526874   -31069.01414128
  entropy T*S    EENTRO =        -0.00000000
  eigenvalues    EBANDS =      -163.33100054
  atomic energy  EATOM  =     22478.82442253
  Solvation  Ediel_sol  =         0.00000000
  ---------------------------------------------------
  free energy    TOTEN  =      -587.86417264 eV

  energy without entropy =     -587.86417264  energy(sigma->0) =     -587.86417264


--------------------------------------------------------------------------------------------------------




 average (electrostatic) potential at core
  the test charge radii are     1.0406  0.7215  0.5201
  (the norm of the test charge is              1.0000)
       1 -72.0190       2 -71.7898       3 -71.9368       4 -71.8096       5 -71.6961
       6 -71.3842       7 -71.7475       8 -72.0447       9 -71.8561      10 -71.5771
      11 -72.0647      12 -72.2306      13 -72.1446      14 -71.7196      15 -71.6973
      16 -71.5717      17 -71.7554      18 -71.9130      19 -71.9522      20 -71.6636
      21 -71.9602      22 -72.1927      23 -71.9231      24 -71.7014      25 -71.9232
      26 -72.2292      27 -72.0263      28 -71.6124      29 -71.9624      30 -72.0221
      31 -72.0649      32 -71.7877      33 -67.4607      34 -67.2777      35 -67.3288
      36 -67.3603      37 -67.2419      38 -67.8136      39 -67.0521      40 -67.2840
      41 -67.3903      42 -67.0018      43 -67.3789      44 -67.3948      45 -67.5000
      46 -67.4232      47 -67.0828      48 -67.3792      49 -67.1524      50 -67.3306
      51 -66.9630      52 -67.3199      53 -67.1476      54 -67.3910      55 -67.0699
      56 -67.0470      57 -66.9385      58 -66.6226      59 -67.2220      60 -66.9530
      61 -67.3893      62 -67.6008      63 -67.4267      64 -67.2987      65 -67.1732
      66 -67.3403      67 -67.5591      68 -67.6108      69 -67.4681      70 -68.2989
      71 -67.3728      72 -67.2646      73 -67.3816      74 -67.2512      75 -67.4382
      76 -67.9343      77 -67.0671      78 -67.4964      79 -67.3802      80 -66.8914
      81 -34.4162
 
 
 
 E-fermi :  10.8021     XC(G=0): -11.5580     alpha+bet :-16.4104


 spin component 1

 k-point     1 :       0.0000    0.0000    0.0000
  band No.  band energies     occupation 
      1     -13.4490      1.00000
      2     -12.8935      1.00000
      3     -12.4337      1.00000
      4     -12.3815      1.00000
      5     -12.2689      1.00000
      6     -12.2048      1.00000
      7     -12.1714      1.00000
      8     -12.1263      1.00000
      9     -12.0953      1.00000
     10     -12.0663      1.00000
     11     -12.0315      1.00000
     12     -11.9704      1.00000
     13     -11.7471      1.00000
     14     -11.5467      1.00000
     15     -11.4743      1.00000
     16     -11.3632      1.00000
     17     -11.3213      1.00000
     18     -11.2330      1.00000
     19     -11.2216      1.00000
     20     -11.1126      1.00000
     21     -11.1046      1.00000
     22     -11.0230      1.00000
     23     -10.9803      1.00000
     24     -10.8980      1.00000
     25     -10.8821      1.00000
     26     -10.8698      1.00000
     27     -10.8093      1.00000
     28     -10.7852      1.00000
     29     -10.7587      1.00000
     30     -10.7290      1.00000
     31     -10.6920      1.00000
     32     -10.6884      1.00000
     33     -10.6574      1.00000
     34     -10.6067      1.00000
     35     -10.5933      1.00000
     36     -10.5540      1.00000
     37     -10.5257      1.00000
     38     -10.4959      1.00000
     39     -10.4760      1.00000
     40     -10.4508      1.00000
     41     -10.3835      1.00000
     42     -10.3622      1.00000
     43     -10.3059      1.00000
     44     -10.2579      1.00000
     45     -10.2450      1.00000
     46     -10.2128      1.00000
     47     -10.1678      1.00000
     48     -10.0196      1.00000
     49      -2.2845      1.00000
     50      -0.9197      1.00000
     51      -0.6641      1.00000
     52      -0.5921      1.00000
     53      -0.4937      1.00000
     54      -0.4274      1.00000
     55      -0.4006      1.00000
     56      -0.3151      1.00000
     57      -0.2204      1.00000
     58      -0.1774      1.00000
     59      -0.0421      1.00000
     60       0.0353      1.00000
     61       0.1398      1.00000
     62       0.2509      1.00000
     63       0.2625      1.00000
     64       0.3059      1.00000
     65       0.3628      1.00000
     66       0.4085      1.00000
     67       0.5467      1.00000
     68       0.5767      1.00000
     69       0.7045      1.00000
     70       0.7748      1.00000
     71       0.7849      1.00000
     72       0.8606      1.00000
     73       1.0522      1.00000
     74       1.1057      1.00000
     75       1.1541      1.00000
     76       1.2700      1.00000
     77       1.3044      1.00000
     78       1.3095      1.00000
     79       1.3831      1.00000
     80       1.3950      1.00000
     81       1.4477      1.00000
     82       1.4831      1.00000
     83       1.5655      1.00000
     84       1.5961      1.00000
     85       1.6088      1.00000
     86       1.6437      1.00000
     87       1.7331      1.00000
     88       1.7704      1.00000
     89       1.8016      1.00000
     90       1.8523      1.00000
     91       1.8769      1.00000
     92       1.9266      1.00000
     93       2.0149      1.00000
     94       2.0720      1.00000
     95       2.1031      1.00000
     96       2.1584      1.00000
     97       2.1950      1.00000
     98       2.2353      1.00000
     99       2.2824      1.00000
    100       2.3240      1.00000
    101       2.3566      1.00000
    102       2.4184      1.00000
    103       2.4270      1.00000
    104       2.4556      1.00000
    105       2.4795      1.00000
    106       2.5073      1.00000
    107       2.5979      1.00000
    108       2.6204      1.00000
    109       2.6437      1.00000
    110       2.6884      1.00000
    111       2.6988      1.00000
    112       2.7141      1.00000
    113       2.9187      1.00000
    114       3.1261      1.00000
    115       3.2803      1.00000
    116       3.3445      1.00000
    117       3.4060      1.00000
    118       3.5081      1.00000
    119       3.5329      1.00000
    120       3.5672      1.00000
    121       3.5865      1.00000
    122       3.6107      1.00000
    123       3.6328      1.00000
    124       3.6524      1.00000
    125       3.7108      1.00000
    126       3.7416      1.00000
    127       3.7937      1.00000
    128       3.8304      1.00000
    129       3.8798      1.00000
    130       3.8863      1.00000
    131       3.9331      1.00000
    132       4.0222      1.00000
    133       4.0597      1.00000
    134       4.1229      1.00000
    135       4.1345      1.00000
    136       4.1899      1.00000
    137       4.2159      1.00000
    138       4.2693      1.00000
    139       4.2853      1.00000
    140       4.3053      1.00000
    141       4.3199      1.00000
    142       4.3797      1.00000
    143       4.3960      1.00000
    144       4.4214      1.00000
    145       4.4241      1.00000
    146       4.4615      1.00000
    147       4.4826      1.00000
    148       4.5007      1.00000
    149       4.5284      1.00000
    150       4.5613      1.00000
    151       4.5979      1.00000
    152       4.6132      1.00000
    153       4.6232      1.00000
    154       4.6356      1.00000
    155       4.6492      1.00000
    156       4.6887      1.00000
    157       4.7069      1.00000
    158       4.7333      1.00000
    159       4.7556      1.00000
    160       4.7869      1.00000
    161       4.8545      1.00000
    162       4.8809      1.00000
    163       4.9141      1.00000
    164       4.9345      1.00000
    165       4.9990      1.00000
    166       5.0068      1.00000
    167       5.0208      1.00000
    168       5.0551      1.00000
    169       5.0895      1.00000
    170       5.1081      1.00000
    171       5.1415      1.00000
    172       5.1611      1.00000
    173       5.1799      1.00000
    174       5.2629      1.00000
    175       5.3342      1.00000
    176       5.3894      1.00000
    177       5.4133      1.00000
    178       5.4965      1.00000
    179       5.5397      1.00000
    180       5.5650      1.00000
    181       5.5914      1.00000
    182       5.6185      1.00000
    183       5.6293      1.00000
    184       5.6595      1.00000
    185       5.6960      1.00000
    186       5.7138      1.00000
    187       5.7498      1.00000
    188       5.8070      1.00000
    189       5.8252      1.00000
    190       5.9275      1.00000
    191       5.9478      1.00000
    192       6.0117      1.00000
    193      10.4840      1.00000
    194      11.8012      0.00000
    195      13.9450      0.00000
    196      14.0201      0.00000
    197      14.3711      0.00000
    198      14.6069      0.00000
    199      14.6509      0.00000
    200      14.6716      0.00000
    201      14.7183      0.00000
    202      14.7816      0.00000
    203      14.9061      0.00000
    204      14.9281      0.00000
    205      14.9845      0.00000
    206      14.9937      0.00000
    207      15.0160      0.00000
    208      15.0685      0.00000
    209      15.0931      0.00000
    210      15.1608      0.00000
    211      15.2089      0.00000
    212      15.2406      0.00000
    213      15.3085      0.00000
    214      15.3336      0.00000
    215      15.3820      0.00000
    216      15.5352      0.00000
    217      15.5730      0.00000
    218      15.6856      0.00000
    219      15.8441      0.00000
    220      15.8698      0.00000
    221      15.9786      0.00000
    222      16.2008      0.00000
    223      16.3536      0.00000
    224      16.3843      0.00000
    225      16.4725      0.00000
    226      16.5379      0.00000
    227      16.6255      0.00000
    228      16.7164      0.00000
    229      16.7284      0.00000
    230      16.8472      0.00000
    231      16.8942      0.00000
    232      16.9752      0.00000
    233      16.9889      0.00000
    234      17.0562      0.00000
    235      17.1021      0.00000
    236      17.1376      0.00000
    237      17.1959      0.00000
    238      17.2776      0.00000
    239      17.3167      0.00000
    240      17.3467      0.00000

 spin component 2

 k-point     1 :       0.0000    0.0000    0.0000
  band No.  band energies     occupation 
      1     -13.3301      1.00000
      2     -12.7210      1.00000
      3     -12.3936      1.00000
      4     -12.3322      1.00000
      5     -12.2619      1.00000
      6     -12.1917      1.00000
      7     -12.1546      1.00000
      8     -12.1232      1.00000
      9     -12.0927      1.00000
     10     -12.0621      1.00000
     11     -12.0041      1.00000
     12     -11.9671      1.00000
     13     -11.7043      1.00000
     14     -11.5177      1.00000
     15     -11.4534      1.00000
     16     -11.3318      1.00000
     17     -11.3164      1.00000
     18     -11.2264      1.00000
     19     -11.2157      1.00000
     20     -11.1025      1.00000
     21     -11.0855      1.00000
     22     -11.0173      1.00000
     23     -10.9702      1.00000
     24     -10.8888      1.00000
     25     -10.8766      1.00000
     26     -10.8667      1.00000
     27     -10.8052      1.00000
     28     -10.7824      1.00000
     29     -10.7464      1.00000
     30     -10.7258      1.00000
     31     -10.6881      1.00000
     32     -10.6713      1.00000
     33     -10.6546      1.00000
     34     -10.6034      1.00000
     35     -10.5900      1.00000
     36     -10.5502      1.00000
     37     -10.5224      1.00000
     38     -10.4907      1.00000
     39     -10.4702      1.00000
     40     -10.4481      1.00000
     41     -10.3804      1.00000
     42     -10.3594      1.00000
     43     -10.2936      1.00000
     44     -10.2543      1.00000
     45     -10.2417      1.00000
     46     -10.2096      1.00000
     47     -10.1578      1.00000
     48     -10.0040      1.00000
     49      -1.5748      1.00000
     50      -0.9017      1.00000
     51      -0.6328      1.00000
     52      -0.5894      1.00000
     53      -0.4786      1.00000
     54      -0.4209      1.00000
     55      -0.3848      1.00000
     56      -0.2996      1.00000
     57      -0.2052      1.00000
     58      -0.1698      1.00000
     59      -0.0275      1.00000
     60       0.0703      1.00000
     61       0.1549      1.00000
     62       0.2630      1.00000
     63       0.2768      1.00000
     64       0.3179      1.00000
     65       0.3782      1.00000
     66       0.4244      1.00000
     67       0.5608      1.00000
     68       0.6032      1.00000
     69       0.7161      1.00000
     70       0.7786      1.00000
     71       0.7941      1.00000
     72       0.8709      1.00000
     73       1.0803      1.00000
     74       1.1329      1.00000
     75       1.1817      1.00000
     76       1.2794      1.00000
     77       1.3199      1.00000
     78       1.3289      1.00000
     79       1.3915      1.00000
     80       1.4096      1.00000
     81       1.4603      1.00000
     82       1.5081      1.00000
     83       1.5727      1.00000
     84       1.6141      1.00000
     85       1.6330      1.00000
     86       1.6515      1.00000
     87       1.7385      1.00000
     88       1.7831      1.00000
     89       1.8075      1.00000
     90       1.8597      1.00000
     91       1.8874      1.00000
     92       1.9369      1.00000
     93       2.0312      1.00000
     94       2.0973      1.00000
     95       2.1148      1.00000
[...]
   0.141E+02 -.966E+01 -.245E+02   -.144E+02 0.974E+01 0.251E+02   0.272E+00 -.839E-01 -.561E+00   0.382E-02 0.462E-02 -.469E-02
   -.140E+02 0.979E+01 0.257E+02   0.141E+02 -.102E+02 -.263E+02   -.123E+00 0.405E+00 0.633E+00   -.950E-04 0.458E-02 -.161E-02
   -.145E+02 0.947E+01 0.250E+02   0.149E+02 -.976E+01 -.257E+02   -.354E+00 0.295E+00 0.728E+00   0.208E-02 -.446E-02 -.383E-03
   -.145E+02 0.985E+01 0.249E+02   0.149E+02 -.100E+02 -.255E+02   -.367E+00 0.199E+00 0.585E+00   -.436E-02 -.232E-02 -.198E-03
   -.135E+02 0.981E+01 0.252E+02   0.137E+02 -.997E+01 -.258E+02   -.196E+00 0.170E+00 0.617E+00   0.394E-02 -.365E-02 -.108E-02
   -.145E+02 0.866E+01 0.242E+02   0.148E+02 -.897E+01 -.249E+02   -.279E+00 0.313E+00 0.725E+00   -.585E-02 -.756E-02 0.204E-02
   -.102E+02 0.755E+01 0.265E+02   0.100E+02 -.795E+01 -.279E+02   0.230E+00 0.385E+00 0.139E+01   0.640E-03 0.281E-02 0.700E-02
   -.136E+02 0.103E+02 0.246E+02   0.140E+02 -.107E+02 -.252E+02   -.392E+00 0.416E+00 0.636E+00   0.885E-02 0.215E-02 -.195E-02
   -.139E+02 0.955E+01 0.245E+02   0.142E+02 -.963E+01 -.250E+02   -.276E+00 0.864E-01 0.541E+00   -.826E-03 -.248E-02 0.170E-02
   0.141E+02 -.263E+02 0.711E+00   -.146E+02 0.270E+02 -.861E+00   0.421E+00 -.674E+00 0.154E+00   0.659E-02 -.757E-02 0.258E-02
   0.127E+02 -.266E+02 -.643E+00   -.131E+02 0.273E+02 0.593E+00   0.390E+00 -.727E+00 0.583E-01   0.798E-03 -.124E-01 -.744E-02
   0.137E+02 -.272E+02 0.154E+00   -.139E+02 0.278E+02 -.150E+00   0.300E+00 -.652E+00 -.735E-02   -.175E-02 -.640E-02 -.191E-04
   0.147E+02 -.271E+02 -.166E+00   -.153E+02 0.276E+02 -.827E-03   0.582E+00 -.523E+00 0.166E+00   0.568E-02 0.740E-02 -.189E-02
   0.136E+02 -.266E+02 0.479E-01   -.138E+02 0.272E+02 0.739E-01   0.210E+00 -.576E+00 -.122E+00   -.998E-02 -.515E-02 0.256E-02
   0.166E+02 -.241E+02 -.263E+01   -.178E+02 0.248E+02 0.274E+01   0.122E+01 -.633E+00 -.980E-01   0.882E-02 0.431E-02 -.366E-02
   0.148E+02 -.265E+02 -.246E-01   -.153E+02 0.270E+02 0.131E+00   0.547E+00 -.487E+00 -.124E+00   -.362E-03 0.875E-02 0.826E-02
   0.137E+02 -.271E+02 -.328E+00   -.142E+02 0.279E+02 0.347E+00   0.435E+00 -.736E+00 -.234E-01   -.223E-02 0.566E-02 -.183E-02
   -.319E+00 0.421E+00 -.963E-01   0.351E+00 -.422E+00 0.106E+00   -.250E-02 -.282E-01 -.186E-02   -.357E-03 0.135E-02 0.876E-03
 -----------------------------------------------------------------------------------------------
   -.118E-01 0.107E+00 -.820E-01   0.684E-13 0.112E-12 -.146E-12   -.706E-02 -.777E-01 0.782E-01   0.145E-01 -.353E-01 0.215E-02
 
 
 POSITION                                       TOTAL-FORCE (eV/Angst)
 -----------------------------------------------------------------------------------
     20.50140     10.74939      7.34515        -0.002089     -0.003183      0.003512
     17.55550      9.21447      3.37135        -0.000825      0.008497     -0.001715
      4.57175      5.13116      0.57875         0.000136     -0.008543      0.002547
      7.52120      6.67294      4.54402        -0.005845     -0.000568     -0.002982
      9.06836      2.06477      1.39693         0.011084     -0.000328     -0.003030
      9.75383      2.41747      4.54542         0.004616      0.007298     -0.002202
      9.74976      5.12922      0.57974         0.003171     -0.001831     -0.000266
     12.69969      6.68911      4.53893         0.000493     -0.007849     -0.016555
      3.88791      2.05789      1.38638        -0.001605      0.001364      0.002097
      6.84422      3.59980      5.35768        -0.000264      0.008897      0.001767
      6.83578      6.31543      1.38991        -0.000202     -0.004105     -0.000361
      9.78475      7.86056      5.35398        -0.004937      0.001415      0.002432
     12.33676      3.76667      2.55452         0.006681      0.004130     -0.004067
      6.80036      0.87443      0.59184        -0.002581     -0.001131      0.005094
     12.01554      6.31237      1.39052        -0.009223      0.002317      0.004355
     14.97142      7.86732      5.35339        -0.001904     -0.007336     -0.005002
      7.16046      3.77459      2.56462         0.002611      0.006857     -0.001531
     10.10202      5.32053      6.52581        -0.006929      0.002782     -0.001417
     10.11246      8.02922      2.55945        -0.001521      0.003354      0.010567
     13.06125      9.57417      6.52940        -0.002723     -0.005698     -0.001442
     12.01467      3.60309      5.35532         0.007676      0.002893     -0.001858
     15.28859      5.31816      6.52907        -0.001970     -0.003450     -0.008135
     15.28909      8.03328      2.56050         0.003353     -0.008483     -0.002608
     18.23271      9.56739      6.53033        -0.008195      0.000896      0.005322
      9.42625      4.95899      3.37322         0.004121      0.010923     -0.002974
     12.36311      6.51579      7.34465        -0.001260     -0.004515     -0.003936
     12.37505      9.21645      3.37220        -0.005037     -0.001774      0.001573
     15.32610     10.75934      7.33923        -0.002227      0.002205      0.009106
     14.60404      4.95924      3.35872         0.008332     -0.007762     -0.010276
     17.55087      6.50295      7.33758        -0.007947     -0.008897      0.004522
      1.62363      0.87090      0.57628         0.000094      0.005487      0.009179
      4.58227      2.40716      4.53925         0.000555      0.008594      0.002609
      6.38392      4.42149      0.98974         0.005790     -0.007765     -0.006239
      9.32763      5.96352      4.94863        -0.005149      0.004646      0.002589
      9.34032      8.67342      0.98192        -0.001554     -0.000648      0.000590
     12.29020     10.21304      4.94781         0.005107      0.002079      0.001391
     11.56577      4.41541      0.98345        -0.005149      0.000698     -0.003973
     14.54267      5.99698      4.91834         0.001660     -0.001032     -0.006289
     14.51316      8.67832      0.98208        -0.000033     -0.000547      0.003374
     17.46511     10.21837      4.95074        -0.002316      0.005302      0.005418
      5.34610      1.99252      0.21331         0.005674     -0.001641     -0.005738
      8.29508      3.53396      4.18435         0.007454      0.005117      0.000741
      8.29314      6.24496      0.21789        -0.001870      0.000985     -0.008165
     11.24095      7.79684      4.18124        -0.004781      0.004820      0.008082
     10.52126      1.99089      0.21584        -0.002433     -0.000479      0.001199
     13.47063      3.50146      4.13948         0.003922      0.001671      0.003669
     13.47261      6.24082      0.21984        -0.000670     -0.001631      0.000469
     16.42769      7.79925      4.18008        -0.007148      0.006374      0.000375
      5.70189      3.84042      3.73712         0.013094     -0.001170      0.001447
      8.65148      5.38514      7.69895         0.000901     -0.001250     -0.002177
      8.65611      8.09821      3.73212        -0.005502      0.010021      0.009667
     11.60429      9.63943      7.70204         0.001456     -0.006556     -0.006034
     10.88465      3.83995      3.73465        -0.002705      0.003262      0.002515
     13.83140      5.42108      7.74401        -0.003718     -0.004391      0.001659
     13.83184      8.10736      3.73174        -0.003087     -0.003366     -0.005479
     16.77595      9.63394      7.70362        -0.007321      0.000827     -0.002175
      7.24851      1.94028      2.20747         0.006690     -0.001412      0.001384
     10.20246      3.48480      6.16538        -0.004029      0.000923     -0.000352
     10.20132      6.19498      2.20150        -0.001323      0.004948      0.004427
     13.14987      7.73926      6.16551         0.003376     -0.000556     -0.007736
     12.42581      1.93359      2.18994        -0.001192      0.000783      0.003563
     15.41729      3.45676      6.17936         0.005216     -0.009139      0.008121
     15.37585      6.20005      2.19565         0.006732      0.001006     -0.005775
     18.32534      7.73866      6.16504        -0.005859      0.004390      0.002564
      3.79919      3.89330      1.74278         0.007933     -0.002813     -0.004479
      6.74694      5.43546      5.71842        -0.002269      0.001867     -0.002552
      6.74701      8.14890      1.74884        -0.001201     -0.000383     -0.001260
      9.69548      9.69544      5.71839        -0.004559     -0.000017      0.007653
      8.98051      3.89774      1.76027         0.000307     -0.002707      0.000174
     11.88066      5.46917      5.70216         0.002132     -0.005545     -0.003268
     11.92682      8.14551      1.75513        -0.001369      0.010323      0.002962
     14.87856      9.69466      5.71913        -0.006814      0.004553     -0.004381
      4.66458      1.41174      2.96106         0.004734      0.004314      0.005991
      7.62014      2.95606      6.93382         0.004017     -0.002893      0.001224
      7.60691      5.67015      2.96816         0.003537      0.005517     -0.003565
     10.55356      7.22255      6.93653        -0.003635     -0.003375     -0.003100
      9.84178      1.41584      2.96742        -0.001226      0.003522      0.002324
     12.76339      2.92695      6.96419        -0.009242     -0.002646      0.011522
     12.78970      5.66869      2.97020         0.001814      0.000276     -0.008886
     15.73811      7.21495      6.93276        -0.010537     -0.000744     -0.006382
     13.63717      4.48182      5.93739         0.029508     -0.027973      0.008584
 -----------------------------------------------------------------------------------
    total drift:                               -0.004446     -0.006436     -0.001702


--------------------------------------------------------------------------------------------------------



  FREE ENERGIE OF THE ION-ELECTRON SYSTEM (eV)
  ---------------------------------------------------
  free  energy   TOTEN  =      -597.89039376 eV

  energy  without entropy=     -597.89039376  energy(sigma->0) =     -597.89039376
 
 d Force = 0.6854830E-03[ 0.534E-03, 0.837E-03]  d Energy = 0.7792250E-03-0.937E-04
 d Force = 0.1147318E-01[ 0.102E-01, 0.127E-01]  d Ewald  = 0.1147272E-01 0.460E-06


--------------------------------------------------------------------------------------------------------


    POTLOK:  cpu time    0.4489: real time    0.4485


--------------------------------------------------------------------------------------------------------


 stress matrix after NEB project (eV)
      2.84616     -1.71105     -1.18048
     -1.71105      5.22649     -0.61746
     -1.18048     -0.61746      5.70523
  FORCES: max atom, RMS     0.041556    0.009698
  FORCE total and by dimension    0.087282    0.029508
  Stress total and by dimension    8.796102    5.705231
 Quasi-Newton relaxation of ions (Broydens 2nd method)
  g(Force)  = 0.368E-03   g(Stress)= 0.000E+00

 retain information from N=  3 steps
 eigenvalues of (default step * inverse Hessian matrix)
  average eigenvalue of G=   3.5908
 eigenvalue spectrum of G is  4.7829  4.7829  1.2067


--------------------------------------------------------------------------------------------------------


  
 reached required accuracy - stopping structural energy minimisation
     LOOP+:  cpu time   67.6547: real time   67.6521
    4ORBIT:  cpu time    0.0000: real time    0.0000

volume of typ            1:    52.8 %

volume of typ            2:    15.9 %

volume of typ            3:     0.0 %
 
total charge     
 
# of ion       s       p       d       tot
------------------------------------------
    1        0.646   1.099   0.744   2.488
    2        0.647   1.102   0.747   2.495
    3        0.651   1.112   0.758   2.521
    4        0.647   1.102   0.747   2.496
    5        0.648   1.105   0.751   2.505
    6        0.647   1.101   0.746   2.494
    7        0.647   1.102   0.747   2.495
    8        0.646   1.099   0.744   2.489
    9        0.646   1.100   0.745   2.491
   10        0.648   1.105   0.751   2.505
   11        0.647   1.103   0.749   2.499
   12        0.646   1.099   0.745   2.490
   13        0.648   1.106   0.752   2.506
   14        0.646   1.098   0.743   2.486
   15        0.646   1.100   0.745   2.490
   16        0.648   1.105   0.751   2.504
   17        0.646   1.100   0.745   2.491
   18        0.648   1.106   0.752   2.506
   19        0.647   1.104   0.749   2.500
   20        0.646   1.099   0.744   2.490
   21        0.638   1.081   0.728   2.447
   22        0.638   1.081   0.728   2.447
   23        0.646   1.099   0.745   2.490
   24        0.648   1.105   0.751   2.504
   25        0.647   1.101   0.747   2.495
   26        0.646   1.099   0.744   2.488
   27        0.651   1.112   0.757   2.520
   28        0.647   1.102   0.747   2.495
   29        0.646   1.099   0.744   2.488
   30        0.647   1.102   0.747   2.495
   31        0.647   1.101   0.746   2.494
   32        0.646   1.099   0.744   2.489
   33        1.406   3.395   0.005   4.806
   34        1.406   3.394   0.005   4.805
   35        1.406   3.393   0.005   4.804
   36        1.406   3.394   0.005   4.805
   37        1.406   3.393   0.005   4.805
   38        1.410   3.381   0.006   4.797
   39        1.406   3.392   0.005   4.802
   40        1.406   3.392   0.005   4.803
   41        1.406   3.392   0.005   4.802
   42        1.406   3.393   0.005   4.804
   43        1.406   3.392   0.005   4.803
   44        1.406   3.395   0.005   4.806
   45        1.406   3.392   0.005   4.803
   46        1.410   3.381   0.006   4.797
   47        1.406   3.394   0.005   4.806
   48        1.406   3.394   0.005   4.805
   49        1.406   3.392   0.005   4.802
   50        1.406   3.394   0.005   4.805
   51        1.406   3.393   0.005   4.804
   52        1.406   3.394   0.005   4.805
   53        1.406   3.392   0.005   4.803
   54        1.410   3.381   0.006   4.797
   55        1.406   3.394   0.005   4.805
   56        1.406   3.393   0.005   4.805
   57        1.406   3.394   0.005   4.805
   58        1.406   3.392   0.005   4.803
   59        1.406   3.393   0.005   4.804
   60        1.406   3.391   0.005   4.802
   61        1.406   3.394   0.005   4.805
   62        1.410   3.382   0.006   4.797
   63        1.406   3.394   0.005   4.805
   64        1.406   3.394   0.005   4.805
   65        1.406   3.394   0.005   4.805
   66        1.406   3.392   0.005   4.803
   67        1.406   3.393   0.005   4.804
   68        1.406   3.392   0.005   4.803
   69        1.406   3.394   0.005   4.805
   70        1.411   3.380   0.006   4.796
   71        1.406   3.394   0.005   4.805
   72        1.406   3.394   0.005   4.805
   73        1.406   3.394   0.005   4.805
   74        1.406   3.394   0.005   4.805
   75        1.406   3.393   0.005   4.804
   76        1.406   3.394   0.005   4.805
   77        1.406   3.393   0.005   4.805
   78        1.410   3.381   0.006   4.797
   79        1.406   3.391   0.005   4.802
   80        1.406   3.392   0.005   4.803
   81        0.179   0.001   0.000   0.180
--------------------------------------------------
tot          88.38  198.02   24.13  310.53
 
magnetization (x)
 
# of ion       s       p       d       tot
------------------------------------------
    1       -0.000  -0.000   0.000  -0.000
    2        0.000   0.000   0.000   0.000
    3        0.002   0.000   0.000   0.003
    4        0.000   0.000   0.000   0.000
    5        0.001   0.002   0.001   0.004
    6        0.000  -0.000   0.000   0.000
    7        0.000   0.000   0.000   0.000
    8       -0.000  -0.001   0.000  -0.001
    9       -0.000  -0.000  -0.000  -0.000
   10        0.001   0.001   0.001   0.004
   11        0.000   0.000   0.000   0.000
   12       -0.000  -0.000  -0.000  -0.000
   13        0.001   0.001   0.001   0.004
   14       -0.000  -0.000   0.000  -0.000
   15       -0.000  -0.000  -0.000  -0.000
   16        0.001   0.002   0.001   0.004
   17       -0.000  -0.000  -0.000  -0.000
   18        0.001   0.002   0.001   0.004
   19        0.000   0.000   0.000   0.000
   20       -0.000  -0.000  -0.000  -0.000
   21       -0.002   0.003   0.016   0.016
   22       -0.002   0.002   0.015   0.015
   23       -0.000  -0.000  -0.000  -0.000
   24        0.001   0.001   0.001   0.004
   25        0.000   0.000   0.000   0.000
   26       -0.000  -0.001   0.000  -0.001
   27        0.002   0.000   0.000   0.003
   28        0.000   0.000   0.000   0.000
   29       -0.000  -0.000   0.000  -0.000
   30        0.000  -0.000   0.000   0.000
   31        0.000   0.000   0.000   0.000
   32       -0.000  -0.000   0.000  -0.000
   33        0.000  -0.000   0.000   0.000
   34        0.000   0.001   0.000   0.002
   35        0.000   0.000   0.000   0.000
   36        0.000   0.000   0.000   0.001
   37        0.000  -0.000   0.000   0.000
   38        0.005   0.042   0.000   0.047
   39       -0.000  -0.000  -0.000  -0.000
   40        0.000  -0.000  -0.000  -0.000
   41       -0.000  -0.000  -0.000  -0.000
   42        0.000  -0.000   0.000   0.000
   43        0.000   0.000   0.000   0.000
   44        0.000  -0.000   0.000   0.000
   45        0.000  -0.000  -0.000  -0.000
   46        0.005   0.040   0.000   0.046
   47        0.000   0.000   0.000   0.001
   48        0.000   0.001   0.000   0.002
   49       -0.000  -0.000  -0.000  -0.000
   50        0.000  -0.000   0.000   0.000
   51        0.000   0.000   0.000   0.000
   52        0.000  -0.000   0.000   0.000
   53        0.000  -0.000  -0.000  -0.000
   54        0.005   0.041   0.000   0.046
   55        0.000   0.000   0.000   0.001
   56        0.000   0.001   0.000   0.002
   57        0.000   0.000   0.000   0.001
   58        0.000  -0.000  -0.000  -0.000
   59        0.000   0.000   0.000   0.000
   60       -0.000  -0.000  -0.000  -0.000
   61        0.000   0.001   0.000   0.002
   62        0.004   0.038   0.000   0.043
   63        0.000  -0.000   0.000   0.000
   64        0.000  -0.000   0.000   0.000
   65        0.000   0.000   0.000   0.001
   66        0.000  -0.000  -0.000  -0.000
   67        0.000   0.000   0.000   0.000
   68       -0.000  -0.000  -0.000  -0.000
   69        0.000   0.001   0.000   0.002
   70        0.005   0.044   0.001   0.049
   71        0.000  -0.000   0.000   0.000
   72        0.000  -0.000   0.000   0.000
   73        0.000  -0.000   0.000   0.000
   74        0.000   0.001   0.000   0.002
   75        0.000   0.000   0.000   0.000
   76        0.000   0.001   0.000   0.001
   77        0.000  -0.000   0.000   0.000
   78        0.005   0.040   0.000   0.045
   79       -0.000  -0.000  -0.000  -0.000
   80        0.000  -0.000  -0.000  -0.000
   81        0.132   0.000   0.000   0.132
--------------------------------------------------
tot           0.17    0.27    0.04    0.48
 

 total amount of memory used by VASP MPI-rank0   119711. kBytes
=======================================================================

   base      :      30000. kBytes
   nonl-proj :      26545. kBytes
   fftplans  :       8259. kBytes
   grid      :      36662. kBytes
   one-center:        497. kBytes
   wavefun   :      17748. kBytes
 
  
  
 General timing and accounting informations for this job:
 ========================================================
  
                  Total CPU time used (sec):     2205.650
                            User time (sec):     2164.863
                          System time (sec):       40.787
                         Elapsed time (sec):     2211.415
  
                   Maximum memory used (kb):      249648.
                   Average memory used (kb):           0.
  
                          Minor page faults:        32291
                          Major page faults:            0
                 Voluntary context switches:         1357
